smiles,IE,EA,charge,formula_pretty
C(=O)(NC(=O)C)N,6.353280200779045,0.2029097422087944,0.0,H6C3(NO)2
C1(C(C(=C(C(=C1F)F)F)F)(F)F)(F)F,5.926916259939025,1.9655259480437963,0.0,C3F4
c1cc2c(cc1)C(=O)c1c(C2=O)cc(cc1C)N(=O)=O,6.036008001255686,2.58418338607371,0.0,H9C15NO4
N1(C(=O)C=CC1=O)CC,6.104901755701212,1.945945509705416,0.0,H7C6NO2
c1cc2c(cc1)C(=O)c1c(C2=O)cc2c(c1)N([O])OON2[O],4.750310174474725,6.246643707248586,0.0,H3C7NO3
c1(N2C(=O)C=CC2=O)cc(cc(c1)Cl)Cl,5.412160818975826,2.119379912402656,0.0,H5C10N(ClO)2
[C@H](CC)(Cl)C,6.605590965658484,1.6814417835899804,0.0,H9C4Cl
c12c(c(=O)[nH]c1=O)cc1c(c2)c(=O)[nH]c1=O,6.590989889469347,2.4103954095386144,0.0,H2C5NO2
C1(C=CN(C=C1)C)(C)C,3.3636769737746364,-0.969551412747387,0.0,H13C8N
c1(cc2c(cc1)nc(cn2)C)C=C,4.805203274632367,1.3186296732816118,0.0,H10C11N2
c1(ccc(cc1)Cl)CC#N,5.406664383391762,1.126275641652319,0.0,H6C8NCl
c1cc([nH]c1)N(=O)=O,5.4857138589555685,1.847240995793618,0.0,H2C2NO
N(=O)(=O)CCCC,6.53165291997866,1.611840941333503,0.0,H9C4NO2
C(c1cc(ccc1)C#N)(F)(F)F,6.256311745944549,0.9928832964338654,0.0,H4C8NF3
N1(C=C[C](C=C1)Cl)[O],4.838881686051172,1.2385743153077784,0.0,H4C5NClO
C1(=CN(C=C[CH]1)[O])C#N,5.190658276774775,1.279475289238326,0.0,H4C6N2O
c12c(cncn1)cccc2,5.377054332371335,1.0924360272761988,0.0,H3C4N
c1(cc2c(cc1)C(=O)c1c(C2=O)cc(cc1)C)C(=O)O,5.72585818826119,2.339510124654771,0.0,H5(C4O)2
c1(N(=O)=O)[nH]ccn1,5.837830632795521,2.1832539393322805,0.0,H3C3N3O2
c12c(nsn1)cccc2,5.266006982366525,1.5731968687010522,0.0,H4C6SN2
c1(C(=O)OC)occc1,5.382741696637458,0.6654802252283845,0.0,H2C2O
s1ncnc1,6.374391573342654,0.6987997974043538,0.0,H2C2SN2
C(=C)(OC)C=C,4.651210864195127,0.1151522210826443,0.0,H8C5O
S,6.000068911605558,-0.4819196424799883,0.0,H2S
c12N(c3c(Sc1ccc(c2)Cl)cccc3)C=C,3.670636322765495,0.1712224421731663,0.0,H10C14SNCl
C1=C[C](CC=N1)c1c(cncc1NC)[NH]=C,2.4019666616200994,1.7544978076344706,0.0,H7(C3N)2
c12c(nnn1C=C)cccc2,4.941714232199592,0.9370562580385012,0.0,H7C8N3
c1(c(c(c(c(c1F)F)F)F)F)Cl,5.951674447745608,1.713152847327001,0.0,C6ClF5
c1(cc2c(cc1NC(=O)C)nccn2)NC(=O)C,4.812884460532223,1.4505287693224092,0.0,H6C6N2O
c1(cnccc1)O,5.18424281479165,0.0731300428993564,0.0,H5C5NO
C(=C(C(C(F)(F)F)(F)F)F)(C(F)(F)F)C(F)(F)F,7.78575216672616,2.1552027169251238,0.0,CF2
c1cc(c(cn1)[NH]=C)[C]1CC=NC=C1C,2.541660785098065,1.7734060241142289,0.0,H13(C4N)3
c1cc(ccn1)c1ccnc(c1NC)C,4.103251028687373,0.8255608481063974,0.0,H13(C4N)3
c1(ccccc1)SC=C,4.401640277510159,-0.0371356873205512,0.0,H8C8S
c1cc2c(cc1)C(=O)c1c(C2=O)cc(cc1C)C#N,5.968229328501911,2.3527017708926,0.0,H9C16NO2
N([N][N]N(C)C)(C)C,3.341804681119902,0.149386068543754,0.0,H3CN
c1cc(ccn1)c1ccnc(c1NC)NC,3.647154476753349,0.724485898842977,0.0,H7(C3N)2
c1cc(ccn1)c1ccnc(c1C)CC,5.437551968070329,0.796662328511593,0.0,H14C13N2
c1cc2c(cc1N(C)C)C(=O)c1c(C2=O)cc(cc1)N(C)C,5.486702044636331,3.135693149521103,0.0,H9C9NO
C(C(=O)O)(F)F,7.254890095414884,0.7479197902335728,0.0,HCOF
c1cc(ccn1)c1cc(nc(c1)C=C)C=C,4.899655783961498,1.2156468876397413,0.0,H6C7N
C1(C(=O)O)CSSC1,4.310730736613186,1.882653493461112,0.0,H3C2SO
c1(oc(cc1)C)C,4.305529618011496,-1.076396027105511,0.0,H8C6O
c1cc(ccn1)c1cc(ncc1NC)NC,3.308763372553221,0.7271135552415218,0.0,H7(C3N)2
c1cc(ccn1)c1cc(nc(c1)N)N,3.9448342295523617,0.8568002569278179,0.0,H5C5N2
C1CC[C@H](S[C@H]1O)C,4.86612371264855,-0.5191130408660682,0.0,H12C6SO
N(=C)O,5.895703657049671,1.0023098068864784,0.0,H3CNO
c1(cc2c(cc1)nc(cn2)NC(=O)C)NC(=O)C,4.570236523364292,1.2578745988481388,0.0,H6C6N2O
C1(C(=O)C)CC1,5.79227760884678,0.0335451285014642,0.0,H8C5O
C1(=C(C(=O)C(=C(C1=O)F)F)F)F,6.643185323789657,3.393244011758361,0.0,C3OF2
c1(cc(cc(c1)C)C)C#N,5.408018470832394,0.6023804628544895,0.0,H9C9N
c12c(cco1)cccc2,4.719822033861055,-0.0916546880984241,0.0,H6C8O
c1(cc2c(c(c1)C)nccn2)C(=O)O,5.368539025037171,1.5985020080457617,0.0,H4C5NO
c1cc(c(cn1)C=C)c1ccncc1C=C,5.101087187665689,0.9014881656745276,0.0,H6C7N
c1(c2cc(cs2)C)c(ccs1)C,3.965389591916028,0.4627493391686585,0.0,H5C5S
c1cc(ccn1)c1c(cncc1C=C)C=C,4.9270989652774,0.83034922988154,0.0,H6C7N
c1(cocc1)C,4.756906749983136,-1.1625644142990494,0.0,H6C5O
C1[C@H](C[C@H](SC1)O)C,4.875715619332913,-0.849626501140301,0.0,H12C6SO
c1(cc2c(cc1)ncc(n2)N(C)C)N(C)C,3.804433323026024,0.7592301366290486,0.0,H4C3N
[nH]1nccc1,5.468351594666819,-0.7968954325018784,0.0,H4C3N2
C1C[C@H]([C@H](SC1)O)C,4.763781902036135,-0.7131441971636376,0.0,H12C6SO
c1(cc2c(cc1)C(=O)c1c(C2=O)cc(cc1)NC)NC,4.114541641390678,1.8073110138371704,0.0,H7C8NO
c1cc2c(cc1)C(=O)c1c(C2=O)cc(c(c1)C=C)C=C,4.943256834665226,2.2158659284519677,0.0,H6C9O
O(CCCC)c1c(C)csc1,4.385626897839392,-0.8485235366737469,0.0,H14C9SO
[C@@H]1(CC[C@H](SC1)NC)NC,4.061129733041161,-0.7119118806644109,0.0,H16C7SN2
c1(cc(ccn1)c1ccnc(c1)C=C)C=C,5.189406199367658,1.0691479916291429,0.0,H6C7N
c1c(c2c(c(c1)N(=O)=O)nccn2)N(=O)=O,6.21310719231551,2.79068665974919,0.0,HC2NO
c1cc2c(cc1)nc(c(n2)C=C)C=C,4.94246812631136,1.4261064380185418,0.0,H5C6N
c1cc2c(cc1)C(=O)c1c(C2=O)cc(cc1F)C,5.72162774870012,2.2107369036872115,0.0,H9C15O2F
c1cc2c(cc1)C(=O)c1c(C2=O)cc(c(c1)F)F,5.93889941867892,2.314397184758127,0.0,H3C7OF
c1cc2c(cc1)C(=O)c1c(C2=O)cc(c(c1)C(=O)O)C(=O)O,6.131711055991763,2.512185971934377,0.0,H4C8O3
C1=NC=C[C]([C@H]1N)c1ccncc1[CH2],3.75059119181933,1.9679083482402349,0.0,H11C11N3
c1cc2c(cc1C)C(=O)c1c(C2=O)cc(cc1)C=C,5.136931617069058,2.1892245087961784,0.0,H12C17O2
c1(cc2c(cc1CC)nccn2)CC,5.15940614935389,1.1027339877397029,0.0,H7C6N
c1cc2c(cc1N(=O)=O)C(=O)c1c(C2=O)cc(cc1)N(=O)=O,6.565774240205064,2.860833337873919,0.0,H3C7NO3
C1C[C@H]([C@H](SC1)C)C=C,4.683304231549846,-0.6769089088797045,0.0,H14C8S
C1CC[C@H](S[C@H]1C)NC,4.1771864539128725,-0.7102073813461174,0.0,H15C7SN
c1cc(ccn1)c1ccnc(c1C)NC(=O)C,5.152073277336603,1.0188384640365258,0.0,H13C13N3O
c1cc2c(cc1N)C(=O)c1c(C2=O)cc(cc1)N,4.373723873902781,1.8745811956228864,0.0,H5C7NO
Clc1c2c(cc3c(c2)cccc3)ccc1,4.104648866593925,1.1057041402214964,0.0,H9C14Cl
c1cc(ccn1)c1ccnc(c1C)N(C)C,4.083292134424118,0.77591044009896,0.0,H15C13N3
c1cc2c(cc1C=C)C(=O)c1c(C2=O)cc(cc1)C=C,5.116026773468184,2.2563878233100696,0.0,H6C9O
c1(c(c2c(cc1)nccn2)C#C)C#C,5.083343920461266,1.659994034781994,0.0,H3C6N
[CH2]C#C[CH2].[C]=C[C@@H]1N=C(C=N1)C#N,5.136418625340957,2.495817761267608,0.0,H7C10N3
c1cc2c(cc1)nc(c(n2)C=C)C,5.076023595610968,1.2751348476573183,0.0,H10C11N2
C1[C@H](C[C@H](SC1)NC)C,4.094114901797729,-0.7025088182585022,0.0,H15C7SN
c1cc2c(cc1C(=O)O)C(=O)c1c(C2=O)cc(cc1)C(=O)O,6.247541171347256,2.514547277861857,0.0,H4C8O3
c1(cc2c(cc1)C(=O)c1c(C2=O)cc(cc1)C#N)C#N,6.335659466441575,2.6517332410163363,0.0,H3C8NO
c1cc2c(cc1)C(=O)c1c(C2=O)cc(c(c1)C)C,5.503688066449831,2.106671515857306,0.0,H6C8O
C1C[C@H]([C@H](SC1)C)C,4.631443127176317,-0.8918863734819751,0.0,H14C7S
C1CC[C@@](SC1)(C)O,4.763236789987422,-0.4100136014443705,0.0,H12C6SO
c1(cc2c(c(c1)C)nccn2)NC(=O)C,4.75316572620577,1.3039893773253426,0.0,H11C11N3O
[C@@H]1(CC[C@H](SC1)C)C#N,4.925264803712343,0.0301274249482959,0.0,H11C7SN
c1cc2c(cc1)C(=O)c1c(C2=O)cc(cc1O)C,5.114832876720902,2.253329620236036,0.0,H10(C5O)3
c1cc2c(cc1)C(=O)c1c(C2=O)cc(cc1C(=O)O)C(=O)O,6.19207874916683,2.817443806697702,0.0,H4C8O3
[C@H](CCl)(O)c1ccccc1,5.456927994493162,-0.2794980437305638,0.0,H9C8ClO
C1[C@H](C[C@H](SC1)N)N,4.434912754937249,-0.7576202843360078,0.0,H12C5SN2
c1c(c2c(cc1)ncc(n2)NC)C,4.298328266771568,0.856253738052692,0.0,H11C10N3
CC1(C)CC(=O)CC(=O)C1,5.691478332673432,0.5378841143025057,0.0,H6C4O
c1(cc2c(cc1)C(=O)c1c(C2=O)cc(cc1)C(=O)O)C(=O)O,6.22693896186829,2.5364640747407976,0.0,H4C8O3
[CH]([C][N]CCC#N)CCCC#N,4.334130605611426,0.4850056361516182,0.0,H11(C3N)3
c1cc2c(cc1C#N)C(=O)c1c(C2=O)cc(cc1)C#N,6.331901726714568,2.6436251085084224,0.0,H3C8NO
c1(cc2c(cc1)C(=O)c1c(C2=O)c(ccc1)C=C)C=C,5.189702523175219,2.163496885504719,0.0,H6C9O
c1(cc2c(cc1)C(=O)c1c(C2=O)cc(cc1)N)N,4.31571113279424,1.9140612863317077,0.0,H5C7NO
c1cc2c(cc1C(=O)O)C(=O)c1c(C2=O)cc(cc1)C,5.727529620298446,2.3416696255240823,0.0,H5(C4O)2
c1cc2c(cc1)nc(c(n2)C)NC(=O)C,5.133437991038226,1.3749470254420886,0.0,H11C11N3O
C(CN)c1cc(O)c(cc1)O.Cl,4.282389157860598,1.947387674952188,0.0,H12C8NClO2
C[C@H]1Cc2c(N1)cccc2,3.645601324432937,-0.7460598435540304,0.0,H11C9N
c1cc2c(c(c1)C=C)C(=O)c1c(C2=O)c(ccc1)C=C,5.174357814293762,2.1227633187314496,0.0,H6C9O
O(P(=O)(Cl)Cl)c1ccccc1,5.429054095069295,2.4681212256415166,0.0,PH5C6(ClO)2
C(=C)n1c(ccc1)c1cccs1,3.9052487192289846,0.3393846174818464,0.0,H9C10SN
C(=O)(O)c1c(Cl)c(Cl)ccc1,5.613043314647802,1.1696613360196353,0.0,H4C7(ClO)2
Oc1c(O)ccc(c1)O,4.129774544142128,-0.4277774458972998,0.0,H2C2O
c1cc2c(cc1)C(=O)c1c(C2=O)cc(cc1C)NC(=O)C,5.045555839050939,2.1471365715784487,0.0,H13C17NO3
S([C@@H]1C(=O)OCC1)c1ccccc1,4.738406301535724,1.2371451217273717,0.0,H10C10SO2
[C@@H]12[C@@H](O1)CCCCCC2,5.468912652582366,-1.0857210363741614,0.0,H14C8O
C[C@H]1c2c(CC1)cccc2,4.909103217248775,-0.5947378630902675,0.0,H6C5
C[C@H]1c2c(OC(=O)C1)cccc2,5.102149231646399,-0.003627434127702,0.0,H5C5O
C(=O)c1cc(C)cc(c1)C,5.264622129732379,1.0755639134818922,0.0,H10C9O
C1C[C@H]([C@H](SC1)C)N(=O)=O,4.812222110960283,1.5343261442809308,0.0,H11C6SNO2
c12c(nc[nH]1)ncnc2,5.687537691630132,0.6505525063090318,0.0,H4C5N4
c1c(c2c(cc1)C(=O)c1c(C2=O)c(ccc1)C)C#N,5.786820689628803,2.3212312639530865,0.0,H9C16NO2
N(C(C)C)(C(C)C)C(=S)S,4.342683410233439,0.7754739368443553,0.0,H15C7S2N
c1c(c2c(cc1)C(=O)c1c(C2=O)c(ccc1)C=C)C,4.909228082125628,2.059331218280568,0.0,H12C17O2
C1C[C@H]([C]SC1)NC.NC,4.109550665417919,1.138181770411029,0.0,H16C7SN2
C(=O)(CCC(=O)C)c1ccco1,5.363803844240101,0.9800526745126265,0.0,H10(C3O)3
O(C)c1c2c(ccc1C)cccc2,4.200552069221521,0.2922588571778761,0.0,H12C12O
C(=O)(NCc1ccccc1)c1ccccc1,5.219976820402371,0.5246987783844816,0.0,H13C14NO
c1cc2c(cc1)C(=O)c1c(C2=O)cc(cc1C)N(C)C,4.184332250389707,1.8831142883151188,0.0,H15C17NO2
[CH2]C1=C(C=[S]C1)CC,3.864805198592512,0.1430495086875454,0.0,H10C7S
C1CC[C@@](SC1)(C)NC,4.108237169196945,-0.888906422182481,0.0,H15C7SN
O=C1c2c(C(=O)C1)cccc2,5.719195459150432,1.5621312642120757,0.0,H6C9O2
C(=O)(C(Cl)(Cl)Cl)OCC,6.866800574157969,2.754052694764687,0.0,H5C4Cl3O2
N(C=O)C1CCCCC1,5.565161143181831,-0.788260493042253,0.0,H13C7NO
C(=N)NO,5.079338793882561,-0.5282200760679188,0.0,H4CN2O
c1c(c2c(cc1)nc(cn2)OC)OC,4.602702697562199,0.9818412570035436,0.0,H5C5NO
N(=O)(=O)c1c(C)cccc1C,5.517301954446884,1.762450506000823,0.0,H9C8NO2
C(=C)(C(=O)O)c1ccccc1,5.152514798362608,1.0344800028611645,0.0,H8C9O2
c1(cc2c(cc1)ncc(n2)N)N,4.1134431640799445,0.8411469655053225,0.0,H2C2N
C(=S)(NCC=C)N,4.597897578065021,-0.2717696596868335,0.0,H8C4SN2
C(OCl)(C)(C)C,6.031411633890093,3.3723829594360724,0.0,H9C4ClO
N1(C(=O)N=NC1=O)C,6.012820255882252,3.297279006639292,0.0,H3C3N3O2
O(c1ccccc1)c1ccccc1,4.657703824199052,-0.2826302862635201,0.0,H10C12O
c1cc2c(cc1)[C](c1c(C2=O)c(ccc1[NH]=C)NC)O,2.976735783807817,1.6293710536025174,0.0,H7C8NO
C1(=S)NCCN1,4.707846529677772,-0.7301871168114302,0.0,H6C3SN2
O=c1c(C)c[nH]c(=O)[nH]1,5.316412234160088,0.2182958151202911,0.0,H6C5(NO)2
[C@H](CC(=O)OC)(C(=O)OC)C,6.3632721148092966,-0.4499600081911921,0.0,H12C7O4
[N]([NH])C,4.960445196442469,0.8624913899671811,0.0,H4CN2
c1cc2c(cc1)C(=O)c1c(C2=O)cc(c(c1)C)N(C)C,4.164923624726361,2.0531641146022594,0.0,H15C17NO2
C1[C@H]([C@H](CSC1)NC)NC,3.638167664170033,-0.718824162648525,0.0,H16C7SN2
C1C[C@H]([C@H](SC1)C)CC,4.632500975168659,-0.8928362793580162,0.0,H16C8S
C1CCC(SC1)(C)C,4.644497878381662,-0.9248127846971328,0.0,H14C7S
C(SC)SC,4.407740413973079,-0.7137839857772632,0.0,H8C3S2
C1C[C@H]([C@H](SC1)C)N(C)C,3.704839402316429,-0.835011838308128,0.0,H17C8SN
c1cc2c(c(c1)F)C(=O)c1c(C2=O)c(ccc1)C,5.653774323550897,2.159925217221462,0.0,H9C15O2F
[C@@H]1(CC[C@H](SC1)OC)OC,4.847491182864905,-0.8640818794141523,0.0,H14C7SO2
O(C)c1c(O)c(OC)cc(c1)C=O,4.635531194058421,0.9681258569376952,0.0,H10C9O4
C(c1c(N(=O)=O)cccc1)(F)(F)F,6.377802985623566,2.2249020725517767,0.0,H4C7NO2F3
N(C(=O)N(C)C)c1cc(Cl)c(cc1)Cl,4.591402669729723,1.1723761205445045,0.0,H10C9N2Cl2O
C(#C)CO,6.195213209422581,0.2240558147310367,0.0,H4C3O
c1(cc2c(cc1)C(=O)c1c(C2=O)c(ccc1)C)C#N,5.716498786519514,2.352731814980507,0.0,H9C16NO2
N(=O)(=O)c1cc(C)c(cc1)N(=O)=O,6.376071367443364,2.675988804634108,0.0,H6C7(NO2)2
[C@@H]1(CC[C@H](SC1)F)F,5.3719323090968825,-0.8052686338218336,0.0,H8C5SF2
c1(cc2c(cc1)ncc(n2)C)C(=O)O,5.500244811407901,1.5910024499658904,0.0,H4C5NO
c1(ccc(cc1)CC#N)N(=O)=O,6.139432011322787,2.1376708304756904,0.0,H3C4NO
C(CC(=O)C)c1ccccc1,5.134191270169685,0.066933520989187,0.0,H12C10O
C1CC[C@H](S[C@H]1N)C,4.303691861825064,-0.7198712267658265,0.0,H13C6SN
C1[C@H](C[C@H](SC1)OC)OC,4.659661340405,-1.0183093281833862,0.0,H14C7SO2
C(=O)(NC)c1ccccc1,5.273109248791661,0.5736904749843235,0.0,H9C8NO
Cc1ccsc1C#N,5.33271470484542,0.7554848515479535,0.0,H5C6SN
P(CC)CC,4.461753911596679,-0.982955506419239,0.0,PH11C4
C(C(=O)O)c1cc(OC)c(cc1)O,4.384187026511063,-0.2586766356711449,0.0,H10C9O4
c1cc2c(cc1C)C(=O)c1c(C2=O)c(ccc1)CC,5.575954383480712,2.064632404029544,0.0,H14C17O2
c1(cc2c(cc1)nc(cn2)C)C(=O)O,5.508196864860656,1.5557343957676495,0.0,H4C5NO
c1c(c2c(cc1)nc(cn2)NC)C,4.324302436085054,0.9647715178121872,0.0,H11C10N3
c1(c(nc(c(n1)C)C)C)C,5.06459710014642,0.3284563678967971,0.0,H6C4N
c1(cc2c(cc1)C(=O)c1c(C2=O)c(ccc1)C)C#C,5.507264853194647,2.2017145611986053,0.0,H10C17O2
[C@@H]1(CC[C@H](SC1)C)O,4.763035801262594,-0.4765080111668793,0.0,H12C6SO
c1c(c2c(cc1)ncc(n2)C)N(C)C,3.6163270863777135,1.1577195739570016,0.0,H13C11N3
c1c(c2c(cc1OC)nccn2)C,4.661006110669041,1.1608944077412162,0.0,H10C10N2O
C1C[C@H]([C@H](SC1)C)C(=O)O,4.745850693970715,-0.27222673474389,0.0,H12C7SO2
c1c(c2c(c(c1)C)nccn2)C=C,4.562669451126203,1.3000292638167594,0.0,H10C11N2
c1(N(=O)=O)nc[nH]c1,5.880666967420984,1.865397552213472,0.0,H3C3N3O2
C1[C@H](C[C@H](SC1)C)C,4.691559991258691,-0.8977459014553459,0.0,H14C7S
C1CC[C@H](S[C@H]1OC)C,4.82905152192834,-0.9673020408430602,0.0,H14C7SO
c1cc2c(cc1)C(=O)c1c(C2=O)c(ccc1C#C)C#C,5.220803213805629,2.262291085416655,0.0,H4C9O
[nH]1c(=O)[nH]ncc1=O,6.169865693791143,1.4310950112245338,0.0,H3C3N3O2
c1c(c2c(cc1)ncc(n2)N)C,4.45164375865861,0.965200437254316,0.0,H3C3N
N(C)(C)B,5.422115056128495,-0.3613836665930647,0.0,BH8C2N
c1(cc2c(cc1)C(=O)c1c(C2=O)c(ccc1)C)NC,4.317591591805103,1.9208804591231456,0.0,H13C16NO2
c1(cc2c(cc1)ncc(n2)C(=O)O)C(=O)O,5.840139091500168,2.006973204109818,0.0,H3C5NO2
C1CC[C@H](S[C@H]1CC)C,4.639872451980045,-0.9056487703295716,0.0,H16C8S
c1c(c2c(cc1)nc(cn2)C=C)C=C,4.711641334033265,1.3877114556667949,0.0,H5C6N
c1c(c2c(cc1N(=O)=O)nccn2)N(=O)=O,5.925162298486248,2.6340196042961908,0.0,HC2NO
c1c(c2c(c(c1)C)nccn2)N(=O)=O,5.573262810264714,2.1285271959655803,0.0,H7C9N3O2
[C@@H]1(CC[C@H](SC1)C)C,4.643365901139623,-1.0238553646835498,0.0,H14C7S
c1(N(=O)=O)occc1,5.945121070302411,2.1290060891093163,0.0,H3C4NO3
C1CC[C@H](S[C@H]1C#C)C,4.815097121556027,0.0335425107674383,0.0,H12C8S
C1C[C@H]([C@H](SC1)OC)C,4.694045326677587,-0.911933500660234,0.0,H14C7SO
O=c1[nH]c(=O)[nH]cc1,5.570834330311845,0.2975152992472432,0.0,H2C2NO
c1(cc2c(cc1)C(=O)c1c(C2=O)c(ccc1)C)N,4.492076898151572,1.948889280750882,0.0,H11C15NO2
[C@@H]1(CC[C@H](SC1)OC)C,4.821370197250507,-0.8133215272267988,0.0,H14C7SO
c1(cc2c(cc1)nc(cn2)N)N,3.743858488636397,0.9266445403860416,0.0,H2C2N
[C@@H]1(CC[C@H](SC1)C)NC,4.1665652766329,-0.8915582341272965,0.0,H15C7SN
c1cc2c(c(c1)OC)C(=O)c1c(C2=O)c(ccc1)OC,5.144256777382543,2.111743791281333,0.0,H3C4O
c1c(c2c(cc1N(=O)=O)nccn2)C,5.642549058991426,2.291757642645825,0.0,H7C9N3O2
c1(cc2c(cc1)nc(cn2)C)c1ccccc1,4.779934677456913,1.2402889726377908,0.0,H12C15N2
C1[C@H](C[C@H](SC1)O)O,4.657071232993621,-0.568032790563302,0.0,H10C5SO2
C1CC[C@H](S[C@H]1OC)OC,4.702482276106457,-0.671875608323171,0.0,H14C7SO2
c1cc2c(cc1)C(=O)c1c(C2=O)c(ccc1C)C,5.370971260160877,2.004379055813479,0.0,H6C8O
c1cc2c(cc1OC)C(=O)c1c(C2=O)c(ccc1)C,5.103987047697592,2.061551269920165,0.0,H12C16O3
C(#N)[C@]1(C)N(CC(F)(F)F)[C@@H](C)CCC1,4.804450713881669,-0.7565202750287425,0.0,H15C10N2F3
c1c(c2c(cc1)C(=O)c1c(C2=O)c(ccc1)F)C,5.671694916456181,2.1602454326217413,0.0,H9C15O2F
c1(cc2c(cc1)C(=O)c1c(C2=O)c(ccc1)C#C)C#C,5.510843582834786,2.320296139301354,0.0,H4C9O
C1CC[C@H](S[C@H]1C)C,4.651633103241329,-0.9095804180127742,0.0,H14C7S
CNc1cc(NC)sc1,3.192976302887109,-0.7177381835339474,0.0,H10C6SN2
c1cc2c(cc1)C(=O)c1c(C2=O)c(c(cc1)O)C,5.08139615409309,2.0332314847633826,0.0,H10(C5O)3
C1CC[C@@](SC1)(C)OC,4.44983164921141,-0.8506147532956674,0.0,H14C7SO
c1cc2c(cc1)C(=O)c1c(C2=O)c(ccc1C#N)C,5.935513786467345,2.33904388752635,0.0,H9C16NO2
c1cc2c(cc1)C(=O)c1c(C2=O)c(ccc1N)C,4.354184200937743,1.9519441749231192,0.0,H11C15NO2
C1CC[C@H](S[C@H]1C)NC(=O)C,4.931212741471972,-0.5772071684972615,0.0,H15C8SNO
c1(c(c2c(cc1)nccn2)OC)C,4.431343247236873,1.246529457259021,0.0,H10C10N2O
c1cc2c(cc1)C(=O)c1c(C2=O)c(c(cc1)OC)C,4.9410946888543545,1.9931425529481204,0.0,H12C16O3
C1CC[C@H](S[C@H]1C)N(C)C,3.965998065666645,-0.8890485417963645,0.0,H17C8SN
C1C[C@H]([C@H](SC1)O)O,4.798759140013862,-0.3634953298445906,0.0,H10C5SO2
c1cc2c(cc1)C(=O)c1c(C2=O)c(c(cc1)CC)C,5.422346205950452,2.0469179210282165,0.0,H14C17O2
c1cc2c(c(c1)O)C(=O)c1c(C2=O)c(ccc1)O,5.201293859759607,2.396358779087313,0.0,H4C7O2
c1cc2c(cc1)[C]1c3c(C2=O)c(ccc3N(OO1)[O])C,4.004714542353758,5.692536300391657,0.0,H9C15NO4
C1CC[C@@](SC1)(C)N(=O)=O,4.835647768182389,1.69825275068215,0.0,H11C6SNO2
c1cc2c(cc1C)C(=O)c1c(C2=O)c(ccc1)F,5.682482200188678,2.2151591726193147,0.0,H9C15O2F
C1CC[C@@](SC1)(CC)C,4.669501765938184,-0.9035361764494154,0.0,H16C8S
c1(c(c2c(cc1)nccn2)N(=O)=O)C,5.684760359011852,1.9410856245754984,0.0,H7C9N3O2
c1cc2c(cc1)C(=O)c1c(C2=O)c(ccc1C(=O)O)C,5.8516027849269445,2.529345130451111,0.0,H5(C4O)2
c1cc2c(cc1)C(=O)c1c(C2=O)c(ccc1C)NC,4.184954890393419,1.8648926068904983,0.0,H13C16NO2
n1(n(cccc1)[O])[O],4.986656877599307,1.176425294198998,0.0,H2C2NO
c1(cc2c(cc1)C(=O)c1c(C2=O)c(ccc1)C)F,5.683829452127247,2.164134529864532,0.0,H9C15O2F
c1cc2c(cc1)C(=O)c1c(C2=O)c(ccc1CC)C,5.323012186605046,1.994240200304921,0.0,H14C17O2
c1c(c2c(cc1)C(=O)c1c(C2=O)c(ccc1)C#C)C,5.308371985889243,2.142002640602732,0.0,H10C17O2
c1cc2c(cc1)C(=O)c1c(C2=O)c(ccc1NC(=O)C)C,4.908605431240721,2.4314105898607523,0.0,H13C17NO3
c1(cc2c(c(c1)C)nccn2)CC,4.991799404649646,1.147737657389007,0.0,H12C11N2
c1cc2c(cc1C)C(=O)c1c(C2=O)c(ccc1)OC,4.926039971685531,2.116166862948012,0.0,H12C16O3
c1c(c2c(cc1)nc(cn2)C)OC,4.513771821566115,1.2266130726144184,0.0,H10C10N2O
c1cc2c(cc1)C(=O)c1c(C2=O)c(c(cc1)C#C)C#C,5.342844460863125,2.3071779447542213,0.0,H4C9O
c1cc2c(cc1)C(=O)c1c(C2=O)c(ccc1O)O,4.731815530210588,2.3446164007051267,0.0,H4C7O2
c1(c(c2c(cc1)nccn2)c1ccccc1)C,4.797826442625228,1.1850008638590226,0.0,H12C15N2
C1CCC(SC1)(N(C)C)N(C)C,3.5585577538309736,-0.9107044985124956,0.0,H20C9SN2
C1CC[C@@](SC1)(C)c1ccccc1,4.730181399534194,0.8869060911980342,0.0,H16C12S
c1c(c2c(cc1N(C)C)nccn2)C,3.91978073292521,0.9874286031059456,0.0,H13C11N3
C1CC[C@@](SC1)(C)N(C)C,4.01090857169911,-0.9253475917961622,0.0,H17C8SN
c1cc2c(cc1)C(=O)c1c(C2=O)c(ccc1OC)C,4.925155356811592,2.0402026685093007,0.0,H12C16O3
c1cc2c(cc1)C(=O)c1c(C2=O)c(ccc1F)F,5.826501483335596,2.3068180932546967,0.0,H3C7OF
c1cc2c(cc1F)C(=O)c1c(C2=O)c(ccc1)C,5.702741848277219,2.171983275298408,0.0,H9C15O2F
c1c(c2c(cc1)ncc(n2)C(=O)O)C,5.282168666789948,1.763204666787351,0.0,H4C5NO
c1cc2c(cc1C)C(=O)c1c(C2=O)c(ccc1)C,5.602685905474209,2.067341357158148,0.0,H6C8O
c1(c(c2c(cc1)nccn2)C=C)C=C,4.6374498551300345,1.3568394794434426,0.0,H5C6N
c1cc2c(cc1)C(=O)c1c(C2=O)c(cc(c1)NC)NC,4.097057989836321,1.852334221262572,0.0,H7C8NO
c1cc2c(cc1)C(=O)c1c(C2=O)c(c(cc1)N(=O)=O)C,6.01307905791109,2.489221463312424,0.0,H9C15NO4
c1cc2c(cc1C)C(=O)c1c(C2=O)c(ccc1)NC,4.292328406974411,2.018777148683148,0.0,H13C16NO2
C1CCC(SC1)(C#N)C#N,5.62911958254117,2.048692323669093,0.0,H8C7SN2
c1cc2c(cc1)C(=O)c1c(C2=O)c(c(cc1)C#C)C,5.362832708045607,2.199935948957864,0.0,H10C17O2
c1cc2c(cc1)C(=O)c1c(C2=O)c(c(cc1)N)C,4.427679277939751,1.9522436334787927,0.0,H11C15NO2
C1[C@H](C[C@H](SC1)F)C,5.249185258611396,-0.924547473705752,0.0,H11C6SF
c1c(c2c(cc1)C(=O)c1c(C2=O)c(ccc1)OC)C,5.044558003044221,2.0602991925130483,0.0,H12C16O3