smiles,IE,EA,charge,formula_pretty
C#Cc1ccsc1C,4.692894331399293,0.2300962902423635,0.0,H6C7S
O(C(F)(F)F)c1ccc(cc1)N,4.15231436469694,-0.3348256634366406,0.0,H6C7NOF3
C1C[C@H]([C@H](SC1)C)C#C,4.779283955305436,-0.6637383868423057,0.0,H12C8S
c1(ccc(s1)C#C)C#C,4.6626966723139045,1.0165071096758769,0.0,H4C8S
C1CC[C@@](SC1)(N(C)C)C,3.9368901789654047,-0.8074797057037357,0.0,H17C8SN
C(=O)(O)[C@H]1[C@@H]2[C@H]3[C@@H]2C[C@@H]1C3,5.363524339790819,-0.6579864173094392,0.0,H5C4O
C(=O)(O)c1c(O)cccc1O,4.709269434711677,0.8801338008939639,0.0,H6C7O4
[C](N(C(C)(C)C)[O])(c1ccccc1)c1ccccc1,3.99495145973342,1.0919309458964563,0.0,H19C17NO
[C@@H](CO)(O)[C@@H]1[C@H]2[C@@H](O[C@@H](O1)c1ccccc1)CO[C@@H](O2)c1ccccc1,5.439203685471147,-0.2377966088592074,0.0,H11C10O3
O([Si](C)(C)C)C1=CCCCC1,4.151919013221777,-0.6742296733013062,0.0,SiH18C9O
C1(=CC(=O)C=CC1=O)Cl,6.43078912561541,2.971310100534174,0.0,H3C6ClO2
[C@H]12[C@H]3[C@H](CC[C@@H]1CCCC2)CCCC3,5.474687923223973,-1.1752497111032425,0.0,H12C7
P(Oc1c(C)cccc1)(Oc1c(C)cccc1)Oc1c(C)cccc1,4.780427943654649,0.6745046004085453,0.0,PH21(C7O)3
S(=O)(=O)(Nc1nc(C)ccc1)c1c(C)cc(cc1C)C,4.840693417261354,1.686521751669352,0.0,H18C15S(NO)2
C(=O)(N)c1c(C)c(C)c(c(c1C)C)C,4.732519534970924,-0.0938748322536411,0.0,H17C12NO
C(C)(C)(C)C1=CC(=CC(=O)C1=O)C(C)(C)C,5.334326777972455,2.6233203684401816,0.0,H10C7O
Cl[O].[O].[O].[O].N(=O)(=O)c1ccc(cc1)c1[n]n(n(n1)c1ccccc1)c1ccccc1,6.175264334387611,2.5918253331561574,0.0,H14C19N5ClO6
O(C(=O)C)[C@H]1[C@H](OC(=O)C)[C@@H](COC(=O)C)O[C@H]([C@@H]1OC(=O)C)OC(=O)C,6.229771906387759,0.0108802362607094,0.0,H22C16O11
c12c(c(C#Cc3ncccc3)ccc1C#Cc1ncccc1)nsn2,4.50716691120906,2.0871671659857385,0.0,H10C20SN4
c12c3c4c5c(c1cccc2ccc3ccc4)cc1c(c5)cccc1,4.208961692978482,0.8313925143353118,0.0,H7C12
C(CCCCCCS)CCCCCS,5.22596628817846,-0.8722033346188254,0.0,H13C6S
C[C]1[C]2[CH][C]([C]([C]1C)C)CCc1cc(CC2)ccc1,0.4155723262243556,3.497606689399254,0.0,H22C19
c12c(cc3c(c1)cc(c(c3)OC)OC)cc(c(c2)OC)OC,3.788819085389696,0.6977198102336843,0.0,H9C9O2
c12c3c4ccc1c(C(C)(C)C)ccc2ccc3ccc4,3.983162016114511,0.7482770702605195,0.0,H9C10
C1(=C(C(=O)C(=C(C1=O)N(C)C)N(C)C)N(C)C)N(C)C,3.083462447697093,1.9112505272474665,0.0,H12C7N2O
C(c1ccc(cc1)O)(CC(C)(C)C)(C)C,4.492939120782102,-0.5173098295366798,0.0,H22C14O
C12(c3c(c4c1cccc4)cccc3)c1c(c3c2cccc3)cccc1,4.441080130736372,0.2003134959100863,0.0,H16C25
c1(c2c(c(c3c1cccc3)C#N)cccc2)c1ccccc1,4.304080848561716,1.563040698588884,0.0,H13C21N
N(C)(C)c1c2c(c(cc1)c1c3c(c(cc1)N(C)C)cccc3)cccc2,3.5614501606629347,0.35176290456875,0.0,H12C12N
C(Nc1ccccc1)c1c2c(c(cc1)O)nccc2,3.9555236611464353,0.808241888016346,0.0,H14C16N2O
C1(CN2N(C1)[C@H]1CC[C@@H]2CC1)(CC)CC,2.380744084288017,-0.9842155894133612,0.0,H24C13N2
c12c3c4c(ccc3[nH]c2ccc2c1cccc2)[C@@H]1[C@@H]2[C@H]4[C@H]12,3.77082371831566,0.3694468890476856,0.0,H13C20N
c1(c2c(nc3c1cccc3)cccc2)c1ccccc1,4.382153443604329,1.3250016351463274,0.0,H13C19N
[C@@]12(C[C@H]3C[C@@H](C2)C[C@@H](C1)C3)[C@]12C[C@H]3C[C@@H](C2)C[C@@H](C1)C3,5.013815860494651,-0.8095014271697436,0.0,H3C2
C1(=CC(=CC(=P1)c1ccccc1)c1ccccc1)c1ccccc1,4.61778813094279,1.1118319207322205,0.0,PH17C23
c1(c(n(c2c1cccc2)C)c1ccccc1)[C@@H](c1ccccc1)O,4.059370830008993,0.2371211076257169,0.0,H19C22NO
c1(c(c2n(c1C)cccc2)C(=O)C)c1ccccc1,3.930636200218578,0.59132336465118,0.0,H15C17NO
c1(c2c(cc3c1cccc3)cccc2)Cc1ccccc1,3.942938766185398,0.9713351675505691,0.0,H16C21
c12c3c(ccc2nc2c(c1C)cc(c(c2)C)C)cccc3,4.294166353638138,1.0697449876184693,0.0,H17C20N
C1(=C(C(=O)c2c(C1=O)cccc2)Cl)CN(c1ccc(cc1)OC)C,3.52126101476606,2.636494430671155,0.0,H16C19NClO3
N1(B(N(C=C1)C(C)(C)C)C)C(C)(C)C,3.362270324823476,-0.7843289786946115,0.0,BH23C11N2
c12c(cc(c(c1)C)CCc1cc(c(CC2)cc1C)C)C,4.179137518299831,-0.4967978149092231,0.0,H6C5
O(CCCCCCCC)c1c(N(=O)=O)cccc1,5.184883972140232,1.842430191839958,0.0,H21C14NO3
C(SCCCCCCC)C(=O)OCC,4.90792145133455,0.8153887838321681,0.0,H22C11SO2
O(C)c1cc(ccc1OCc1ccccc1)c1nnc(o1)N,4.202010838854767,0.4061756612150931,0.0,H15C16(NO)3
C1(c2ccc(cc2)N(C)C)CCC(=C(C)C)CC1,3.5904314191880986,-0.8205363208857306,0.0,H25C17N
C(#N)C#N,8.886617180216126,1.5039747980214089,0.0,CN
O(N)C,4.626149903483201,-1.023262942922338,0.0,H5CNO
N(N(C(C)C)C)(C(C)C)C(C)C,2.938343440960671,-0.9407564596825976,0.0,H12C5N
N(C(=O)C)c1c(C)c(C)c(c(c1C)C)NC(=O)C,4.528193242754787,-0.7810070918661949,0.0,H10C7NO
C(=O)(CCCCCCCCCCCCC(=O)OC)OC,6.267060871153808,-0.7803071035072207,0.0,H15(C4O)2
O=C1OC(c2c1cccc2)(c1ccc(cc1)O)c1ccc(cc1)O,4.70897492317963,0.8280621293975856,0.0,H7(C5O)2
[Si](CCC(C(C(C(C(C(F)(F)F)(F)F)(F)F)(F)F)(F)F)(F)F)(OCC)(OCC)OCC,6.023127650530659,1.2206481848930708,0.0,SiH19C14O3F13
C(=O)(NCCCCCCCCCC)[C@H](C(C)C)N,4.761980062159273,-0.6742088212216912,0.0,H32C15N2O
S(CCSc1cc2c(cc1)cccc2)c1cc2c(cc1)cccc2,4.140538151246437,0.4091727829014417,0.0,H9C11S
N([N][N]N(CCCC)C)(CCCC)C,3.211455956393911,-0.1259509258146862,0.0,H12C5N2
N(N(CCCC)C)(CCCC)C,3.230446283224956,-0.9794981776507484,0.0,H12C5N
N1([B](N(C=C2[C]1c1c(OC2)cccc1)c1ccc(cc1)N(=O)=O)(F)F)c1ccc(cc1)N(=O)=O,4.769686723347695,2.237165035077487,0.0,BH15C22N4O5F2
C(=C(F)F)(F)F.[C@](OC(C(S([O])([O])O)(F)F)(F)F)(C(OC(=C(F)F)F)(F)F)(C(F)(F)F)F,5.94188101082691,2.3064235445286614,0.0,HC9SO5F17
N(C1CCCCC1)C1CCCCC1,4.013255300489254,-0.8898251492522831,0.0,H23C12N
[Si](Cc1ccc(cc1)C[Si](C)(C)C)(C)(C)C,4.176178530649485,-0.8050430324023181,0.0,SiH13C7
c12c3c4c5c(cc3ccc1c1c(cc2cc4)cccc1)C=C[CH][CH]5,-0.205412920519302,5.11615182610476,0.0,H7C12
c12c(c3c4c5c1cccc5ccc4ccc3)c1c3c4c2cccc4[CH][CH]c3ccc1,3.956627939923783,4.687946988882322,0.0,H8C15
c1(c(c2ccccc2)cccc1)c1ccccc1,4.574327564450504,0.2927838872215944,0.0,H7C9
Cc1c(c2c(cc1)cccc2)c1c2c(ccc1C)cccc2,4.323105929766461,0.4046411269278906,0.0,H9C11
c12c(c3c(c4c1cccc4)cccc3)cc1c(c2)cc2c(c1)cc1c(c2)cccc1,3.481383803847712,1.5463457853344154,0.0,H3C5
P(Oc1ccc(cc1)Cl)(Oc1ccc(cc1)Cl)Oc1ccc(cc1)Cl,5.039505989241297,0.6889903683419107,0.0,PH12C18(ClO)3
N1([C@H]2CC[C@@H](O1)CC2)[C@@H](C(C)(C)C)O,3.478991373538156,-0.8493008135286799,0.0,H21C11NO2
N1(N(C)C)CCCCCC1,3.1934636261190463,-0.935340828297194,0.0,H9C4N
P(=O)(CC(=O)C)(OCC)OCC,6.066770797243953,0.3618393861339428,0.0,PH15C7O4
C12(C3(C(=C4C5(C6(C74CC7)CC6)CC5)C41CC4)CC3)CC2,3.819886706021498,-1.006502333215758,0.0,H6C5
[C@H](CCCC[C@@H](CCCC)C)(CCCC)C,5.977088734672725,-0.9736322223565366,0.0,H17C8
C(C(F)F)(COP(OCC(C(F)F)(F)F)OCC(C(F)F)(F)F)(F)F,5.809651930497784,0.6615433012717404,0.0,PH9C9(OF4)3
S(=O)(=O)(Nc1c(C)cccn1)c1ccc(cc1)C,4.800011856886703,1.7316157658329758,0.0,H14C13S(NO)2
C(=C(c1ccccc1)c1ccccc1)(c1ccccc1)c1ccccc1,3.981410982605303,0.864534202975483,0.0,H10C13
c12c(cc(c(=O)o2)c2ccccc2)ccc(c1)N(CC)CC,3.888696279323631,0.9895612136875572,0.0,H19C19NO2
O(CCCCCCCCC)c1ccc(cc1)N(=O)=O,5.293454060343356,1.875085528694035,0.0,H23C15NO3
C(N(N(CC(C)(C)C)C)C)C(C)(C)C,2.553272848597408,-1.0345634496810816,0.0,H14C6N
[C@H](P(=O)(OCC)OCC)(C)c1ccccc1,5.240279149545676,-0.465659221545502,0.0,PH19(C4O)3
[C@H](C(C(=O)OCC)(C)C)(O)c1ccccc1,5.363669618645508,-0.2104210614292241,0.0,H18C13O3
N1(N(C2CC2)[C@@H]2CC[C@H]1C=C2)C1CC1,3.1408180093909324,-0.953762102503242,0.0,H9C6N
N(C(F)(F)F)(C(F)(F)F)C(F)(F)F,7.942120895613334,-1.066833359049633,0.0,C3NF9
[C@@H]1(C[C@H](CSC1)F)F,5.05690205820938,-0.7795541835643234,0.0,H8C5SF2
c12c(c(=O)n(c(=O)n1C)C)[nH]cn2,4.778519944005529,0.3326584205402469,0.0,H8C7(N2O)2
[C@H]([C@@H](O)c1ccc(cc1)O)(O)c1ccc(cc1)O,4.553223819236882,-0.4741532903921324,0.0,H7C7O2
S1SC=CC=C1,3.859659868766903,2.1133962542677183,0.0,H2C2S
C(c1c(C(F)(F)F)c(C(F)(F)F)c(c(c1C(F)(F)F)C(F)(F)F)C(F)(F)F)(F)(F)F,7.500078054713958,2.328067348623881,0.0,C2F3
C1(=C(C(=O)c2c(C1=O)cccc2)Cl)N(CCN(c1ccccc1)C)C(=O)C,3.7833303206876736,2.796210987007362,0.0,H19C21N2ClO3
c12c(C(=O)C=C(C1=O)O)cccc2,5.710084445645043,2.4926570202565927,0.0,H6C10O3
c1(c2ccccc2)nc(no1)c1ccccc1,5.203179722951608,1.0285418448780548,0.0,H10C14N2O
n1ncnnc1,5.392738671982079,2.294211766607623,0.0,HCN2
[Si](OC(=C)c1ccccc1)(C)(C)C,4.346784865106747,0.2781825089892664,0.0,SiH16C11O
S1(=O)(=O)c2c(C=C1)cccc2,5.452033776758617,1.4344410046192937,0.0,H6C8SO2
c1(c(c2n(c1)cccc2)C)c1ccccc1,3.5670786939168466,0.1025934789846361,0.0,H13C15N
C12(CSSC1)CSSC2,4.277363637041708,1.826725402870216,0.0,H8C5S4
C1(=C[CH]N(C=C1)[O])OC,4.329710331272144,0.2562351618940739,0.0,H7C6NO2
c12c(n(ccn1[O])[O])cccc2,4.521206137621993,1.7778520894040413,0.0,H3C4NO
[C@@H]12[C@H]3[C@H]4[C@@H]1[C@@H]2C[C@@H]34,3.92527619706616,-1.1849966219937411,0.0,H8C7
C(c1ccccc1)(c1ccccc1)(c1ccccc1)O,4.951111074083746,-0.1474444468971341,0.0,H16C19O
n1(c2ccccc2)n(c(cc1=O)C)C,4.2502608483642685,0.1496007636429568,0.0,H12C11N2O
c1(n2cccc2)ccc(cc1)OC,4.200189806787966,-0.307783033691885,0.0,H11C11NO
c1(=O)[nH]cccn1,5.407568734688175,0.9904103122640664,0.0,H4C4N2O
S1CSCSC1,4.819729470540187,0.3986943783034804,0.0,H2CS
N1(C(=O)c2c(C1=O)cccc2)c1ccccc1,5.081971560580859,1.6201534340558283,0.0,H9C14NO2
c12c(c(=O)c3c(n1C)cccc3)cccc2,4.339172404282726,1.0167792235166415,0.0,H11C14NO
C1(=CN(C=CC1)[O])C(=O)OCC,4.996635877103108,1.2280242876327976,0.0,H9C8NO3
c1(C(C)C)ccc(cc1)C(C)C,4.877847887047755,-0.8156064671278727,0.0,H3C2
c12c(cc(c(c1)C)C)nc[nH]2,4.570029988962778,-0.3899103262978314,0.0,H10C9N2
S1CCOCC1,4.851871685046353,0.0181323340126255,0.0,H8C4SO
c1(c([nH]nc1C)C)N(=O)=O,5.773841768388229,1.5874937515487546,0.0,H7C5N3O2
c1(c2cc(cs2)C)cc(cs1)C,3.994916542085412,0.5445771895443614,0.0,H5C5S
N1(c2c(C[C@H]1C)cccc2)NC(=O)c1cc(S(=O)(=O)N)c(cc1)Cl,3.961993026155688,1.0982116271785345,0.0,H16C16SN3ClO3
C1(=CC(=O)C=CC1=O)C(=O)OC,6.321514425833447,2.9920907105639345,0.0,H3(C2O)2
C12=NCCCN1CCCN2,3.807887228607433,-0.9287263721857016,0.0,H13C7N3
N1(C(=O)C=CC1=O)C,6.162941735399363,1.960067056000844,0.0,H5C5NO2
c1(nc[nH]c1)C,4.678416637068585,-0.809537498579084,0.0,H3C2N
c12c3c4c5c6c1c(ccc2sc3ccc4ccc5)ccc6,3.850823913371278,1.1011487749725348,0.0,H10C20S
c12c([nH]c(=O)[nH]c1=O)nccn2,5.751783872328451,1.6839192494731834,0.0,H2C3N2O
C1(=COc2c(O1)cccc2)c1ccccc1,3.858497542672558,0.3896389114030172,0.0,H5C7O
c1(c(cccc1)O)C(C)C,4.655336969866402,-0.5113826567871,0.0,H12C9O
c12c(C=Cc3c(N1)cccc3)cccc2,3.4760093215205417,0.6823267793693959,0.0,H11C14N
[C@@H]1(C[C@H](CSC1)O)O,4.91829109202954,-0.4434163588251976,0.0,H10C5SO2
c12C(=O)c3c(COc1cccc2)cccc3,4.959330980074446,1.370781463259482,0.0,H5C7O
[nH]1nnnc1,6.987797619737284,-0.6809641561061652,0.0,H2CN4
[NH][NH],5.372205715476502,1.0557351059570466,0.0,HN
c12c(cccc2)ccn1C,4.09477804322305,-0.3535408124211243,0.0,H9C9N
c1(c2ccccc2)oc(cc1)C=O,4.670461375393279,1.31348490129094,0.0,H8C11O2
C1(CSSSC1)(C)C,4.603570161105017,1.7097951503106743,0.0,H10C5S3
c1(c2nnccc2)nnccc1,5.257207759617449,1.1780588752040786,0.0,H3(C2N)2
[C@@H]1(OC(=O)C)CCC=C1,5.431037170928539,1.3953217096528534,0.0,H10C7O2
[Si](c1ccc(cc1)[Si](C)(C)C)(C)(C)C,5.120304041099734,-0.2433103590432437,0.0,SiH11C6
c12c(c(c3c(c1CC)cccc3)CC)cccc2,3.7840860814991175,0.9037817152617208,0.0,HC
C1(=NOCC1)c1ccccc1,4.667491029707525,0.6203357094596869,0.0,H9C9NO
c1cc2c(cc1)C(=O)c1c(C2=O)c(ccc1CC)CC,5.30200401592956,1.9773476235546696,0.0,H8C9O
P(=O)(OC(C)C)(OC(C)C)OC(C)C,6.18969192711811,-0.7916105218813754,0.0,PH21C9O4
C(OC)(OC)c1c(cccc1)c1c(C(OC)OC)cccc1,4.897387268848979,0.0611619728675578,0.0,H11C9O2
c1(sccn1)Cl,5.377316979369061,1.409946342735202,0.0,H2C3SNCl
P12P3P1P23,5.343179729593976,1.0833397569018417,0.0,P
C(C)(C)C1=CC=C(CC1)C,3.88053241518137,-0.2758403276060561,0.0,H8C5
c1(c(c(c(c(c1F)F)C#N)F)F)C#N,6.350636574019154,2.1375862248401973,0.0,C4NF2
N1(c2ccccc2)C(=O)C=CC1=O,5.125035360604306,2.00630094959306,0.0,H7C10NO2
[C]1(C=CN(C=C1)[O])CC,4.636022854783368,0.3752062437484711,0.0,H9C7NO
c12c(cccn1)cccn2,5.623954486367074,1.0824023682631378,0.0,H3C4N
c12c([nH]c(c1C)C)cccc2,3.828895374786589,-0.7924652532186882,0.0,H11C10N
c12c(c3c(nc1cccc2)cccc3)N,3.901849094917998,1.069210512503196,0.0,H10C13N2
N(N(CC)C)(CC)CC,2.874102188244797,-1.100367326997366,0.0,H18C7N2
c12c(ncn1C=C)cccc2,4.721388971469059,0.246665331803888,0.0,H8C9N2
c1(ncncc1)C,5.552405562095009,0.408288657828598,0.0,H6C5N2
P(CP(c1ccccc1)c1ccccc1)(c1ccccc1)c1ccccc1,4.177074421926227,0.081577248305257,0.0,P2H22C25
[C]1([N][N][C]2CCCC2)CCCC1,4.296624287193117,0.1124836550912733,0.0,H8C5N
C1(NC(CCC1)(C)C)(C)C,4.0447831744710125,-1.017874803197992,0.0,H19C9N
c12c(ccc(=O)n1C)cccc2,4.7046893560796885,0.7931621717449162,0.0,H9C10NO
c12c(ccc(c1)F)[nH]cc2,4.3691386495971525,-0.1747883801293936,0.0,H6C8NF
C1(=C(C(=O)OC1=O)C)C,6.500933877172065,2.0237588809446607,0.0,H2C2O
[C]12C(=CC=CN1[O])C=CC=C2O,4.400456429924452,1.1335818301900873,0.0,H7C9NO2
c1(c(c(nc(c1F)F)F)F)F,6.178433402086375,1.2804972045974865,0.0,C5NF5
[Si]1(C2=C([Si](C1)(C)C)[Si](C[Si]2(C)C)(C)C)(C)C,4.286024133428873,0.0753171741976985,0.0,SiH7C3
[C@H]([C@@H](O)c1cc(N(=O)=O)ccc1)(O)c1cc(N(=O)=O)ccc1,5.156933554304123,2.0172107689082623,0.0,H6C7NO3
P(SSP(OCC)(OCC)[S])(OCC)(OCC)[S],5.2916929423023245,2.663750144603546,0.0,PH10C4(SO)2
C([N][O])(F)(F)F,6.127812611639092,3.1522822660932435,0.0,CNOF3
C(#C)C#C,6.076854712963359,0.752556922974327,0.0,HC2
C1(=CCCN(C)C)c2c(CCc3c1cccc3)cccc2,4.019559372672665,0.0439748383229017,0.0,H23C20N
c12c(cccc1N)cccc2N,3.495900832236293,-0.0646421595887658,0.0,H5C5N
O(C(=S)C)CC,5.020146975353418,0.8799771150275775,0.0,H8C4SO
c1(cnccc1)C#N,6.04276997844463,0.9590049031154196,0.0,H2C3N
[S]([CH2])(c1cc2c(cc1)cccc2)c1cc2c(cc1)cccc2,3.1817070892226185,0.6387694818491583,0.0,H16C21S
[C@@H]1(C[C@H](CSC1)NC)NC,4.137151177511987,-0.7479138313305156,0.0,H16C7SN2
C(=O)(c1ncccc1)c1ccccc1,5.323649041832686,1.4503271819445218,0.0,H9C12NO
c1(c2ccccc2)[nH]ccc1,3.944232330069645,-0.0496645703682587,0.0,H9C10N
C(O[N][O])CCC,6.234654760642661,1.7270767219684786,0.0,H9C4NO2
c1(c2ccccc2)c(cc(cc1Cl)Cl)Cl,5.1798168587134565,1.280106933490606,0.0,H7(C4Cl)3
C(=O)(CF)CF,6.47104571220334,1.342605664419898,0.0,H4C3OF2
c1(N2CCCC2)c(cccc1)C,3.587250100926758,-0.7691292166877246,0.0,H15C11N
C(C=C)C#N,6.090103535758862,-0.3855802658612446,0.0,H5C4N
N1(C(=O)C)CCCCC1,5.04334908289602,-0.8810348355131281,0.0,H13C7NO
C1(CC1)C=C,4.819150450382585,-0.6429364240379072,0.0,H8C5
Cc1cc(ncc1)c1cc(C)ccn1,5.0360706907846176,0.7281653487003497,0.0,H6C6N
C(=C)C#C,5.471869430669903,0.5334307291519509,0.0,HC
c1(nnc(nn1)C)C,4.979223761559842,2.069231263958136,0.0,H3(CN)2
C1(=C(C(=O)NC1=O)C#N)C#N,7.319212321046143,3.3955125513599342,0.0,HC6N3O2
C1CC[C@H](S[C@H]1C(=O)O)C(=O)O,5.136200637667207,1.2967314753892425,0.0,H10C7SO4
[C@H]([C@@H](O)c1ccc(cc1)N(C)C)(O)c1ccc(cc1)N(C)C,3.630347460749909,-0.613018484373606,0.0,H12C9NO
C(C)(C)(C)C1CCC(=O)CC1,5.518440282828669,-0.0666000159384565,0.0,H18C10O
[Si](n1cccc1)(C)(C)C,4.225959523367783,-0.6594698595021327,0.0,SiH13C7N
N1(CCOCC1)COCC,4.079296491008426,-1.0308809276597457,0.0,H15C7NO2
c12c(cn[nH]1)cccc2,4.771971595225841,0.1247137326550729,0.0,H6C7N2
c12c(oc(=S)n1C)cccc2,4.618828212618245,0.5661464698365308,0.0,H7C8SNO
C1(=C2SCCCS2)SCCCS1,3.696582097001374,0.4057524697724148,0.0,H3C2S
Nc1cc2c(cc1)Nc1c(S2)cc(cc1)N,2.950033108603384,-0.3196958646170968,0.0,H11C12SN3
[C@@H]([C@H](O)c1c(C)cccc1)(O)c1c(C)cccc1,5.032522865114151,-0.1473425076095735,0.0,H9C8O
c1([N]S[N]c2ccccc2)ccccc1,4.05952445459261,2.32185686183002,0.0,H10C12SN2
Cc1cscc1C,4.727699993438,-0.6261654277463093,0.0,H8C6S
c12c(ccc(c1)C#N)cccc2,4.913092212922129,0.9573911918610976,0.0,H7C11N
[B]1(n2c([C]([C]3N1[CH]3)c1ccc(cc1)OC)ccc2)(F)F.C#C,3.879878375964472,2.479300600929128,0.0,BH13C16N2OF2
N1(C(=O)N(C(=O)C1=O)C)C,6.398264716333506,1.8303858401355684,0.0,H6C5N2O3
c1(C(=O)Cl)ccc(cc1)F,6.009065740703226,1.4594040995885735,0.0,H4C7ClOF
C(=S)(NC)NC,4.589715340794646,-0.7186237997870193,0.0,H8C3SN2
C12=CN(C=C[C]1C=CC=C2)[O],4.552087934438168,0.9454634790323326,0.0,H7C9NO
c1(CN([N][N]N(Cc2ccccc2)C)C)ccccc1,3.3953845245210688,-0.334825687923876,0.0,H5C4N
[C@H]([C@@H](O)c1ccc(cc1)Cl)(O)c1ccc(cc1)Cl,5.1149057896269365,0.0375624403401162,0.0,H6C7ClO
c1(nnc(cc1)Cl)Cl,6.2281487418928005,1.337721972051077,0.0,HC2NCl
N1(CCCC1)[N][O],4.997435581580794,0.7845447591367702,0.0,H8C4N2O
c12c(nc(cc1O)C)cccc2,4.753886593860079,0.5601651654829767,0.0,H9C10NO
C1(C(=C(C(C1(F)F)(F)F)c1c(sc(c1)C=O)CCC)c1c(sc(c1)C=O)CCC)(F)F,5.22402650018339,1.4748271827062127,0.0,H18C21S2(OF3)2
c12c(C=CC(=O)[CH][CH]1)csc2,5.043564028340915,1.6301025500193649,0.0,H6C9SO
[C@@H]([C@H](O)c1c(OC)cccc1)(O)c1c(OC)cccc1,4.670749892249296,-0.2399832857248838,0.0,H9(C4O)2
S(SCl)Cl,5.892226717036101,3.387805811247381,0.0,SCl
O([N][O])O,5.627899546541448,2.18947070378872,0.0,HNO3
c1(N(=O)=O)oc(cc1)C=O,6.26204120077964,2.6397256301257586,0.0,H3C5NO4
C1=C([CH]C=CN1[O])C,4.755788087269684,0.478272059488154,0.0,H7C6NO
[C@H]12N(O[C@H](CC1)CC2)C,3.50765034859578,-0.8098864845764182,0.0,H13C7NO
c1(C(C)(C)C)c(ccc(c1)C)O,4.412878306925995,-0.7432780591574555,0.0,H16C11O
c1(c2c(c(cc1)c1c3c(ccc1)cccc3)nsn2)c1c2c(ccc1)cccc2,4.209216209217265,1.5489384642074584,0.0,H16C26SN2
N1(C=NC=C[CH]1)[O],5.161120273338019,0.9199414540740692,0.0,H4C4N2O
c12c3c4=[S][S]=c3c3c(c2=[S][S]=c1c1c4cccc1)cccc3,3.0135163256287343,1.5119122743431943,0.0,H4C9S2
c1(c2ccc(cc2)c2oc(cn2)c2ccccc2)oc(cn1)c1ccccc1,4.1529438483608825,1.247740317581338,0.0,H8C12NO
P(c1ccccc1)(c1ccccc1)(c1ccccc1)[N]c1ccccc1,3.590964277953026,0.4366007857039222,0.0,PH20C24N
C=CC1=C(Cl)S[C](C2=[S]C=CS2)S1,3.357396458488074,1.5679299856288709,0.0,H5C8S4Cl
COCCOCCOCCOC1=CS[C](C2=[S]C=CS2)S1,3.2970599441046944,0.7247330217593118,0.0,H18C13(SO)4
COCCOC1=C(Cl)S[C](C2=[S]C=CS2)S1,3.3244135537184776,0.5292607233510354,0.0,H9C9S4ClO2
COC1=C(C(F)(F)F)S[C](C2=[S]C=CS2)S1,3.368365244875895,0.7404328936114326,0.0,H5C8S4OF3
[C]12[C]3C(=CC=CC3=Cc3c2cccc3)[C]2[C]3C1=Cc1c([C]3[CH][CH][CH]2)cccc1,-0.6663654201023745,5.606904358422616,0.0,H4C7
[C@@]12([C@]3(C(=C4C(=C1C=C(S2)C=O)C(C(C4(F)F)(F)F)(F)F)C=C(S3)C=O)CCC)CCC,4.197080715706397,2.7998046556836926,0.0,H18C21S2(OF3)2
[P@]([C]1C=CC=C1)(c1ccccc1)([C]1C=C[CH]C=C1)[C]1C=C[CH]C=C1,3.4198121348323185,0.5226174830328092,0.0,PH19C23
c1(N2CCCCC2)c(cc(c(c1)F)C=C(C#N)C#N)F,4.391706070660439,1.9252357553974435,0.0,H13C15N3F2
COC1=CS[C](C2=[S]C=CS2)S1,3.1975990135993926,0.7547481604720816,0.0,H6C7S4O
C#CC1=CS[C](C2=[S]C(=CS2)C)S1,3.2622188582914533,0.69060358980787,0.0,H6C9S4
CC1=CSC(=[S]1)[C]1SC=C(C(F)(F)F)S1,3.385380174893362,0.8851124963635812,0.0,H5C8S4F3
[C]([C](N(C)C)N(C)C)(N(C)C)N(C)C,1.9501078935914848,-1.0590147257265925,0.0,H12C5N2
C1=C[S]=C([C]2SC(=C(O)S2)O)S1,3.228647403944342,1.1079945196848713,0.0,H2C3S2O
CC(=O)C1=CSC(=[S]1)[C]1SC=C(F)S1,3.492588665315998,1.2686546389028082,0.0,H5C8S4OF
CC1=CSC(=[S]1)C1=[S]C(=CS1)C(=O)C,3.321229087102984,1.2260005089861807,0.0,H8C9S4O
CC(C)(C)C1=C(N(C)C)S[C](C2=[S]C=CS2)S1,3.0766551554057515,0.1652633314239211,0.0,H17C12S4N
C1=C[S]=C([C]2SC(=C(N)S2)C#N)S1,3.387992089499312,0.8091076263604919,0.0,H4C7(S2N)2
CC1=CSC(=[S]1)[C]1SC=C(OCCOCCOC)S1,3.2178431130902028,0.7040077841680614,0.0,H16C12S4O3
C1=C[S]=C([C]2SC(=C(N(=O)=O)S2)F)S1,3.699091930824216,2.201005644777615,0.0,H2C6S4NO2F
[Si](c1c2c(ccc1)cccc2)([Si](C)(C)C)(C)C,4.358816620662401,0.3699710728229548,0.0,Si2H22C15
P(c1c(c(c(c(c1F)F)F)F)F)(c1c(c(c(c(c1F)F)F)F)F)c1c(c(c(c(c1F)F)F)F)F,5.27249660626112,1.1656962999782992,0.0,P(C6F5)3
C1=C[S]=C([C]2SC(=C(C(F)(F)F)S2)C(F)(F)F)S1,3.582462091938942,1.4694558051938658,0.0,HC4S2F3
CC1=CSC(=[S]1)[C]1SC=C(Cl)S1,3.285469701427792,0.4778060019467376,0.0,H5C7S4Cl
CCC1=CSC(=[S]1)[C]1SC=C(F)S1,3.2884251352676075,1.0589419566618743,0.0,H7C8S4F
C1=C[S]=C([C]2SC(=C(F)S2)Cl)S1,3.450417186440609,1.2052096674684436,0.0,H2C6S4ClF
CN(C)C1=C(OC)S[C](C2=[S]C=CS2)S1,3.0715735110876268,0.3048966075235513,0.0,H11C9S4NO
C1=C[S]=C([C]2SC(=C(N(=O)=O)S2)Cl)S1,3.647795462669456,2.3115580170066097,0.0,H2C6S4NClO2
C=CC1=CS[C](C2=[S]C=CS2)S1,3.236987725752988,0.5365973777603359,0.0,H3(C2S)2
CN(C)C1=C(N)S[C](C2=[S]C=CS2)S1,3.070220552917453,0.2827704027309665,0.0,H5C4S2N
B(c1ccccc1)(c1ccccc1)c1ccccc1,5.211181366431992,1.0153258063597606,0.0,B(H5C6)3
[Si](C([Si](C)(C)C)OC)(C)(C)C,4.323508875937113,-0.699643195587123,0.0,Si2H22C8O
[C@]12(c3ccccc3)OO[C@](CC1)(CC2)c1ccccc1,4.879937900922959,2.3188718002325914,0.0,H9C9O