smiles,IE,EA,charge,formula_pretty
c1(P(OCC)OCC)ccccc1,4.384687631617998,0.2685473362013,0.0,PH15(C5O)2
C1(=C([C](C(=O)C(=C1Cl)Cl)Cl)Cl)[N]C(=O)c1ccccc1,5.798196539262426,3.2843109753972386,0.0,H5C13N(Cl2O)2
c1(C(=O)OCc2ccccc2)ccc(cc1)O,5.200740518995735,0.5293808017464472,0.0,H12C14O3
c12c(C(=O)C=C(C1=O)Cl)cccc2,6.122107959983259,2.692372648239689,0.0,H5C10ClO2
N(N(C)C)(CCC)C,3.23541347100363,-0.9681206463486888,0.0,H8C3N
c1(n(c2c(c1Cl)cccc2)C)c1ccccc1,4.039390838750114,0.3419831794650236,0.0,H12C15NCl
c1(C(=O)C)cc(ccc1)F,5.645005387075434,1.1210327835047793,0.0,H7C8OF
N12N(CCC1)CCCCC2,2.671286884311121,-0.9187066236321696,0.0,H8C4N
[C@@H]12C(=C[C@@H](C1)C=C2)C#N,5.016315432910778,0.7658635345847871,0.0,H7C8N
N1(C(N([C](C1(C)C)C)[O])(C)C)N=O,4.957917367731715,0.9660904154930904,0.0,H15C8N3O2
c1(c2c(ccc1)cccc2)Nc1ccccc1,3.715027034222294,0.3884937665730832,0.0,H13C16N
c12c(c3c([nH]2)c2c(cc3)C=C[CH][CH]2)ccc2c1cccc2,0.0273431044493919,4.27813446751461,0.0,H13C20N
c12C(c3c(N(c1cccc2)C)cccc3)CC,3.681575941265328,-0.4625166495738084,0.0,H17C16N
C1([C@@H]2[N][N][C@H]1CC2)(C)C,4.938185664026241,0.5663677174321493,0.0,H12C7N2
c12c(ccc(c1)N(C)C)cccc2,3.589277536782538,0.1365990501468332,0.0,H13C12N
C1(=[S]C(=C(S1)SCC)SCC)C1=[S]C(=C(S1)SCC)SCC,3.3238093956839294,0.7397842912265333,0.0,H10C7S4
c1(c(N(C)C)cccc1)N(C)C,3.353157779317917,-0.8462731443472875,0.0,H8C5N
c1(c(ccc(c1)OC)OC)OC,3.918913165976482,-0.8222560368089034,0.0,H4C3O
N12N(C[C@H](CC1)CC2)C,3.804747004976525,-0.8682976112235337,0.0,H14C7N2
c1(c(cccc1)C)C(=O)C,5.429103402096734,0.8492190266057151,0.0,H10C9O
C12=C(C=C(C1=C[CH][CH][CH][CH]2)C(=O)C)C(=O)C,4.354838934044528,4.470696127440169,0.0,H6C7O
C(S)(C)(C)C,5.276138923450708,-0.6521479346232808,0.0,H10C4S
c1(C(=O)F)ccc(cc1)C(=O)F,6.362669989468122,2.100491715345561,0.0,H2C4OF
c12c3c(c(ccc3)C)ccc1cc1c(c2)cccc1,4.05029942266774,0.8560454702797871,0.0,H14C19
c1(c2ncncc2)ncncc1,5.867297845821303,1.588902215496637,0.0,H3(C2N)2
c12c(OCc3ccccc3)cccc1cccc2,4.179532347313943,0.167063446102111,0.0,H14C17O
C=Cc1cccc(c1)N(=O)=O,5.380936259508962,1.9061886551786305,0.0,H7C8NO2
C1(=CC=C(C(=O)C1=O)C(C)(C)C)C(C)(C)C,5.186397537339508,2.591530563118431,0.0,H10C7O
c1(c2ccccc2)cc(cc(c1)Cl)Cl,5.492799480177927,0.613896407581342,0.0,H4C6Cl
c1(c2ncccc2)[nH]c2c(n1)cccc2,4.630621052224887,0.830600488917844,0.0,H3C4N
[C]([C](C(C(F)(F)F)(F)F)C(F)(F)F)(C(C(F)(F)F)(F)F)C(F)(F)F,8.22729299296916,2.680186723869701,0.0,CF2
c12c(=C[C](C=C1N(=O)=O)N(=O)=O)n(on2)[O],5.837228387730283,3.229488654758461,0.0,HC3N2O3
c12[C](c3ccccc3)N(CC(=Nc1ccc(c2)Cl)NC)[O],4.151958613948954,0.962695207593788,0.0,H14C16N3ClO
c12c(ccc(c1)OCc1ccccc1)cccc2,4.324014134193567,0.1948574311296398,0.0,H14C17O
C1(=C[CH]C=C1)[CH2],4.5104685500442425,1.1842068982647107,0.0,HC
c12c(OP(O1)F)cccc2,5.00330744174571,1.2590872877750372,0.0,PH4C6O2F
[C@H]12C(=O)CC[C@H](C1)C(=O)CC2,5.561491214588022,0.184150614184182,0.0,H12C9O2
S(=O)(=O)(F)c1c(C)c(COC)c(c(c1C)COC)C,5.346803175701643,2.19272119338857,0.0,H19C13SO4F
[C@H]12[C@H](C[C@@H](C2)C[C@@H]1SC)CSC,4.672894497603556,-0.8067656055158294,0.0,H9C5S
c12c3c(cc(cc3C)C)ccc1cc(cc2C)C,4.155228050834557,0.4067343517468544,0.0,HC
c12c(c(=O)[nH]c(=O)n2)nc2c(n1C)cc(c(c2)C)C,4.917495017548935,2.1877149001353247,0.0,H12C13(N2O)2
c1(c2ccccc2)c(cc(cc1)Cl)Cl,4.952065154183947,0.4084151989241946,0.0,H4C6Cl
S(=O)(=O)(c1ccc(cc1)C)N1CCCCC1,4.841116200533724,0.4115297186850513,0.0,H17C12SNO2
c1(C(=O)OCC#C)ccc(cc1)N(=O)=O,5.450241656789876,2.3171253464002803,0.0,H7C10NO4
c1(c(c(c(c(c1F)F)[C](C#N)C#N)F)F)[C](C#N)C#N,5.918223172471334,3.926908980783628,0.0,C3NF
c1(c(c(c(c(c1C)C)OC)C)C)OC,4.227499407415598,-0.913806479259074,0.0,H9C6O
c1(C2=CCCCCC2)ccccc1,4.402391991985132,-0.0050065587642165,0.0,H16C13
c12c(ccc(=O)[nH]1)cccc2,4.786791557067408,0.8240990171885643,0.0,H7C9NO
N(CC(C)C)(C(C)C)C(C)C,3.701241641035813,-0.9276206893049674,0.0,H23C10N
c1(c(c(cc(c1)F)F)F)F,5.737122506595915,0.5133353670695215,0.0,HC3F2
c12c3c(ccc1cccc2C=CC3=O)N(C)C,4.088028741099697,1.437373360485799,0.0,H13C15NO
C1(=O)C(=C(C)C)CC[C@H](C1)C,4.966787016258968,0.6276621160537617,0.0,H16C10O
N12N(C[C@@H](C1)CCC2)C,3.484495743966909,-0.84855328416088,0.0,H14C7N2
C(N1BN(C=C1)C(C)(C)C)(C)(C)C,3.708541043055084,-0.9626897929159894,0.0,BH21(C5N)2
c1(C2CC2)ccc(cc1)OC,4.160206036090676,-0.6040455359856423,0.0,H12C10O
C12=C([C@@H]3C[C@H]1CC3)[C@H]1C[C@@H]2CC1,4.153418831228555,-1.2041892300861945,0.0,H4C3
c12c(c3c(cc1cccc2)cccc3)OC,3.84116950214011,0.9542812354535272,0.0,H12C15O
c1(C(=O)C=O)ccccc1,5.651333628407519,2.248162300891272,0.0,H3C4O
c12c(N(C)C)cccc2cccc1N(C)C,3.260156232675945,0.088582125184621,0.0,H9C7N
[C]1(N(C)C)C=CN(C=C1)[O],3.714547172353923,0.1442848129987397,0.0,H10C7N2O
C(P(=O)(OC)OC)(CC(=O)C)(C)C,5.624334844372788,0.1032411153588328,0.0,PH17(C2O)4
C1(=S)C(C(=O)C1(C)C)(C)C,4.942446528637083,1.5855849110645068,0.0,H12C8SO
c12c3c4c(c1cccc2ccc3)[n]c1c([n]4)cccc1,4.78088421597713,1.322212071013928,0.0,H5C9N
c1(c2ccccc2)cc(c2ccccc2)ccc1,4.664573506766464,0.3281881071903627,0.0,H7C9
c1(C(=O)OC)nnc(nn1)C(=O)OC,5.617458405218349,2.6262759029610607,0.0,H3C3(NO)2
C(=C(C(C)C)C(C)C)(C(C)C)C(C)C,4.392914362227748,-1.0325586836301226,0.0,H2C
c12c(c(=O)n(c(=O)n1C)C)[nH]c(n2)[N][N]c1ccc(cc1)OC,4.400575923272845,2.045912120259891,0.0,H14C14(N2O)3
C12=C(C(=O)C=CC1=O)CC2,6.113467276199662,2.759030943965263,0.0,H3C4O
n1(nccc1)C=C,4.898759615132439,0.0488093515574292,0.0,H6C5N2
N(CCN)CCN,3.929585048950321,-0.7692180155976529,0.0,H13C4N3
C(C(C)C)C=O,5.976343191732303,0.2124879724538915,0.0,H10C5O
c1(NCC(=O)O)ccccc1,4.015482024362063,0.20164897348659,0.0,H9C8NO2
S(c1ccc(cc1)C)C(C)(C)C,4.36196462946973,0.8339294670309756,0.0,H16C11S
C1(=CC(=O)C=CC1=O)OC,5.496220702163191,2.7284977304221685,0.0,H6C7O3
c12c(C(=O)OC1=O)ccc(c2)c1cc2c(cc1)C(=O)OC2=O,5.849353764047555,2.1998982775163314,0.0,H3C8O3
c1(cc(ccc1)O)C#N,5.221804693411832,0.6922673509630841,0.0,H5C7NO
c1(nnc(nn1)OC)OC,5.178042363558779,2.2203013568083407,0.0,H3C2N2O
S(=O)(=O)(c1c(N(=O)=O)cccc1)C,6.492936979358637,2.3203479824311217,0.0,H7C7SNO4
c12c(c(c3c(n2)ccc(c3)C)C)ccc2c1cccc2,4.317133387479407,1.0780946102764577,0.0,H15C19N
C1([C@H]2C[C@@H]1CC=C2C)(C)C,4.524849676615849,-0.927537547643078,0.0,H8C5
[Si](Sc1ccccc1)(C)(C)C,4.495140434662607,-0.3445538420150114,0.0,SiH14C9S
c12n(c(C(=O)OCC)cc(=O)c1cccc2)CC,4.713409042671264,1.3578704725201534,0.0,H15C14NO3
C1(C=CN(C=C1)C#N)(C)C,4.409675469901776,0.6195496623746295,0.0,H5C4N
N(N(C(C)(C)C)C)(C(C)(C)C)C,3.4996940474426084,-0.9606600277642428,0.0,H12C5N
P(P(CC)CC)(CC)CC,3.794444524702704,-0.7311175094022473,0.0,P(H5C2)2
c12c(c3c(c4c1[CH][CH][CH][CH]4)cccc3)ccc1c2cccc1,0.322758916370367,4.582447463164135,0.0,H7C11
C(SC(C)C)(C)C,4.742925600815942,-0.9936514605782576,0.0,H14C6S
[C@@H]12[C@H]3[C@@H]4[C@H]5[C@H]([C@@H]1C[C@@H](C3)C5)C[C@H](C2)C4,0.5045699980106293,-0.8836674688740458,0.0,H10C7
c12c(C(=O)C=C(C1=O)OC)cccc2,5.629285800555953,2.333837514406332,0.0,H8C11O3
c1(c(cccc1)C=C)C=C,4.613053167833277,0.5202532355593577,0.0,HC
c1(ccc(cc1)C)N=O,4.579940913750397,2.1454916189355573,0.0,H7C7NO
C1([C@@H]2C[C@H](C1=C)CC2)(C)C,4.947132856837561,-0.8626700494191026,0.0,H8C5
[C@H]12C[C@H](CC1)C=C2,4.93215087841927,-0.9827844964778704,0.0,H10C7
c1c(Cl)nc(cn1)Cl,6.023861356513953,1.2752234696905362,0.0,HC2NCl
C(COO)CCC,5.572338635478081,2.161595054674399,0.0,H12C5O2
C(c1c(C(F)(F)F)cc(c(c1)C(F)(F)F)C(F)(F)F)(F)(F)F,7.044596412031387,1.768829635338625,0.0,HC5F6
C1(=CC(=O)C=C(C1=O)Cl)Cl,6.395457995416654,3.138592273296672,0.0,HC3ClO
c12c(nc([nH]1)Cl)cccc2,4.913799110252148,-0.0987559041663188,0.0,H5C7N2Cl
[N](S(=O)(=O)F)S(=O)(=O)F,6.1246180849644585,1.9401372779189845,-1.0,S2N(O2F)2
C(S([O])([O])[O])(F)(F)F,6.024479814126243,-1.0476497361545625,-1.0,CS(OF)3
N(NCC)CC,3.401881149897781,-0.8736736065069635,0.0,H6C2N
c1(c(ccc(c1)C)Cl)Cl,5.2160345466742,1.2444217151656631,0.0,H6C7Cl2
c1(c(cccc1)SCl)N(=O)=O,5.265729434411332,3.373182057106169,0.0,H4C6SNClO2
c1(cc(C#N)cc(c1)C#N)C#N,6.647850005334112,1.5261090900454293,0.0,HC3N
c1c(csc1N(=O)=O)N,4.397388264760229,2.1438021484660568,0.0,H4C4S(NO)2
C1(CC(C1)C=C)(C)C,5.149233051047849,-0.7938773036297788,0.0,H7C4
c1cc(O)sc1C#N,4.855161184886674,0.7081742960195698,0.0,H3C5SNO
N1(C(=O)OCC)C=CC(C=C1)(C)C,4.15075922866672,-0.8580786318038007,0.0,H15C10NO2
C(=CC)(C)C,4.7735086166390825,-1.1385331677260182,0.0,H2C
n1c(cncc1C)C,5.327465618014321,0.6451813301624498,0.0,H4C3N
[C@H]12[N][N][C@H](CC1)CC2,4.491290426572595,0.5285946757518105,0.0,H5C3N
C(CSC)SC,4.705853586974262,-0.7659816976869478,0.0,H5C2S
[n]1c(c(nc1C(F)(F)F)C#N)C#N,5.123930235551233,0.427823473562603,-1.0,C6N4F3
c1(nnc(nn1)F)F,6.163303875378551,2.9733937034103293,0.0,CN2F
c1cscc1C(=O)O,5.385349494166439,0.7019173866043276,0.0,H4C5SO2
[B](F)(F)(F)F,8.092660967847769,-0.9840035256569536,-1.0,BF4
C1C(CCSC1)C#C,4.792650377539394,-0.0553148645652981,0.0,H10C7S
[B](c1ccccc1)(c1ccccc1)(c1ccccc1)c1ccccc1,3.878959118277271,-0.8315300192938593,-1.0,B(H5C6)4
c1(c(c(cc(c1C)O)C)O)C,3.951473635784714,-0.7946936505872144,0.0,H12C9O2
c1(c2oc(cc2)c2occc2)oc(cc1)c1occc1,3.513853621648741,0.7387706018795144,0.0,H5(C4O)2
C(SN(C)C)(C)(C)C,3.934579146066972,-0.9386361459350154,0.0,H15C6SN
N(C(C)C)(C(C)C)N,3.368252127145388,-0.9095343300909008,0.0,H8C3N
c1(cc(cc(c1)C(=O)O)N(=O)=O)N(=O)=O,6.827325903968449,2.4662168260598265,0.0,H4C7(NO3)2
C([N][N]C(C)C)(C)C,4.477308790324605,0.5100434671890981,0.0,H7C3N
c1cc2c(cc1)ncc(n2)F,5.523949804371659,1.408801891795156,0.0,H5C8N2F
[C](C#N)(C#N)C#N,4.415910898649235,-0.8056508313151425,-1.0,C4N3
Cc1ccsc1,4.81400885123694,-0.8434200035357207,0.0,H6C5S
c1cc2c(cc1)ncc(n2)C=C,5.119348807238202,1.316496287182963,0.0,H4C5N
c1cc2c(cc1)ncc(n2)O,5.169495444760832,1.1791014494443517,0.0,H6C8N2O
c1(ccccc1)OC=C,4.656423836076646,-0.3574576217346474,0.0,H8C8O
[Si](OC1=C(CCCC1)C)(C)(C)C,3.834186190275068,-0.6775369802693603,0.0,SiH20C10O
c1(cccs1)C#C,4.774106962316727,0.6233754659384432,0.0,H4C6S
c1(cc2c(cc1)C(=O)c1c(C2=O)cccc1)C(Cl)(Cl)Cl,6.076775764582271,2.375800907838857,0.0,H7C15Cl3O2
c1(cc2c(cc1)nccn2)F,5.542068561458654,1.3634144953717624,0.0,H5C8N2F
c1(cc2c(cc1)C(=O)c1c(C2=O)cccc1)O,5.283106305768888,2.1439292773335183,0.0,H8C14O3
C(N(C)C)C=C,4.035541034748894,-0.7833512464616432,0.0,H11C5N
c1(N([N][O])C)ccccc1,4.941879971296293,1.1376193900192448,0.0,H8C7N2O
c12c(c(c3c(c1Cl)cccc3)Cl)cccc2,4.18645876290393,1.3662454235251065,0.0,H4C7Cl
N1(C=C(C(=O)N)CC=C1)Cc1ccccc1,3.692852842146385,0.3274654952852871,0.0,H14C13N2O
N1C(=O)NCCC1=O,5.969517286839254,0.0359120644694486,0.0,H3C2NO
c1(C(=O)c2ccccc2)c(cccc1)Cl,5.473541591976391,1.252020050558349,0.0,H9C13ClO
c1cc2c(cc1)ncc(n2)N(C)C,4.211015001419218,0.9572972690471944,0.0,H11C10N3
c1c(c2c(cc1)C(=O)c1c(C2=O)cccc1)F,5.885637722616229,2.2477183063434496,0.0,H7C14O2F
P(SCC)(SCC)SCC,4.472005226301553,1.1183002272242448,0.0,PH15(C2S)3
c1c(c2c(cc1)C(=O)c1c(C2=O)cccc1)CC,5.604200401301204,2.0965844762737107,0.0,H6C8O
c1(cc2c(cc1)C(=O)c1c(C2=O)cccc1)NC,4.346402947894239,2.0100167756296288,0.0,H11C15NO2
c1(cc2c(cc1)C(=O)c1c(C2=O)cccc1)C=C,5.153912391362246,2.2212925967702177,0.0,H5C8O
c1(cc2c(cc1)nccn2)N,4.280933708012162,1.1056689422945056,0.0,H7C8N3
N([N][N]N(CC)C)(CC)C,3.2574774841865293,-0.0784327991317694,0.0,H8C3N2
[C]12N(c3c(N=C1C=C(C=C2)Cl)cccc3)[O],4.685635226718295,2.0882423476228724,0.0,H7C12N2ClO
C1[C@H](C[C@H](SC1)C#N)C#N,5.404219500416366,1.1615090067803977,0.0,H8C7SN2
c1(cccs1)C=C,4.434572862982895,0.5046788408231806,0.0,H6C6S
[C@@H]1(CC[C@H](SC1)C)N(C)C,3.811820416458068,-0.8442811458793584,0.0,H17C8SN
C1(c2c(N(c3c1cccc3)C)cccc2)(C)C,3.73119072140762,-0.615594281315134,0.0,H17C16N
c1c(c2c(cc1)C(=O)c1c(C2=O)cccc1)C(Cl)(Cl)Cl,5.86859526555927,2.269271053004195,0.0,H7C15Cl3O2
N(CCCC)(CCCC)C,3.868089797664288,-0.9980657756281288,0.0,H21C9N
[C@@H]1(CC[C@H](SC1)CC)C,4.63554869369691,-0.8609746958449249,0.0,H16C8S
c1(cc2c(cc1)C(=O)c1c(C2=O)cccc1)N(=O)=O,6.0955340680971855,2.6442273045991898,0.0,H7C14NO4
[C@@H]1(CCCSC1)F,4.842697927533299,-0.898849875461019,0.0,H9C5SF
c1cc2c(cc1)ncc(n2)N,4.5711439060083645,1.0167596530878655,0.0,H7C8N3
C1C[C@H]([C@H](SC1)C)NC(=O)C,4.728348791746248,-0.5606003275992406,0.0,H15C8SNO
c1(c2ccccc2)cc(N(=O)=O)ccc1,5.065459194881987,2.0681853508809582,0.0,H9C12NO2
c12c3c(cc4c(c3)C=C[CH][CH]4)ccc1cc1c(c2)ccc2c1cccc2,0.1136854322554428,4.789089974763192,0.0,H8C13
N(CCCC)(CCCC)N,3.3561164105009085,-0.8556033673197816,0.0,H10C4N
C1(C(=O)c2c(C1=O)cccc2)c1ccccc1,5.201801561599131,1.618420498847263,0.0,H10C15O2
c1cc2c(cc1)ncc(n2)C#C,5.372130231096525,1.533158223526334,0.0,H3C5N
c1cc2c(cc1N(=O)=O)C(=O)c1c(C2=O)cc(cc1)C,5.787721527934627,2.624068093727692,0.0,H9C15NO4
C1CC[C@H](S[C@H]1N)N,4.2354233487909365,-0.6775751660083187,0.0,H12C5SN2
c1(cc(ccn1)c1ccncc1)C#N,5.783394501565999,1.4345575890707551,0.0,H7C11N3
c1(cccs1)F,4.928796422287268,0.2637117263489927,0.0,H3C4SF
c1(cc2c(cc1)nc(cn2)C=C)C=C,4.721854667091611,1.448983489251623,0.0,H5C6N
c12c(c3c(cc1cccc2)cccc3)C#N,4.372248505323659,1.5455623913599994,0.0,H9C15N
c12c3c(ccc1cc1c(n2)ccc(c1)C)cccc3,4.39843990583322,1.11448638306465,0.0,H13C18N
c1c(c(ccn1)c1ccncc1)NC,4.199467298286981,0.83592759078565,0.0,H11C11N3
c1c(c2c(cc1C(=O)O)nccn2)C(=O)O,5.719956586044281,1.9238578307827996,0.0,H3C5NO2
C(SSC(C)C)(C)C,4.408766234167706,1.3547651175518696,0.0,H7C3S
O(CC)O,5.6100316403168105,2.164595651250784,0.0,H3CO
c1c(Cl)[nH]c(=O)cn1,5.180852864128246,1.5687028270200245,0.0,H3C4N2ClO
c12c(C(=O)N(C1=O)C)cccc2Cl,5.905204917178343,1.734071024509467,0.0,H6C9NClO2
c1c(ccs1)C(Cl)(Cl)Cl,5.366234819471719,2.6299679789022776,0.0,H3C5SCl3
c12c3c([nH]c1cc1c(c2)cccc1)cccc3,3.86454379515053,0.561077685635246,0.0,H11C16N
c1c(c2c(c(c1)C)nccn2)c1ccccc1,4.608824924228975,1.197000439232943,0.0,H12C15N2
C(#CCl)Cl,5.975877934213349,1.5553884601627943,0.0,CCl
CN(C)c1cccs1,3.4669332447097987,-0.6226814671957981,0.0,H9C6SN
c1cc2c(cc1)ncc(n2)C(=O)O,5.660091579649452,1.8061370766423352,0.0,H6C9(NO)2
c1c(c2c(cc1)C(=O)c1c(C2=O)cccc1)c1ccccc1,4.951996850884461,2.1421494623442414,0.0,H6C10O
c1cc(ccn1)c1ccnc(c1OC)OC,4.551572409328946,0.91492291297036,0.0,H6C6NO
c1(cc2c(cc1)nccn2)OC,4.913186943913024,1.1629147441486567,0.0,H8C9N2O
Cc1c(ccs1)C#N,5.204295776091021,0.4735357684636256,0.0,H5C6SN
c1cc2c(cc1)nc(c(n2)N(=O)=O)C,5.654904673554119,2.389098381865188,0.0,H7C9N3O2
C1CC[C@H](S[C@H]1O)O,4.988213864000136,-0.4107196252902212,0.0,H10C5SO2
[C@@H]1(CCCSC1)O,4.721656848492421,-0.5483187933081353,0.0,H10C5SO
c1c(c2c(cc1)C(=O)c1c(C2=O)cccc1)C,5.64029647342395,2.099756773959234,0.0,H10C15O2
CN(C)c1ccsc1,3.5907916815827776,-0.6569884098738838,0.0,H9C6SN
c1cc2c(cc1C)C(=O)c1c(C2=O)c(ccc1)C=C,5.116705664838809,2.125792332158744,0.0,H12C17O2
c1c(C#N)csc1F,5.429066555161262,0.6972091967778398,0.0,H2C5SNF
c1(C(C)(C)C)c(cccc1)O,4.652613548448789,-0.7519114230784907,0.0,H14C10O
c1cc2c(cc1)C(=O)c1c(C2=O)cc(c(c1)C)C#N,5.994948972727434,2.386373959061166,0.0,H9C16NO2
P(F)(F)(F)(F)(F)F,8.511689750912046,-0.7716173385510046,-1.0,PF6
CNc1ccsc1,3.7153494210921054,-0.6240499059189459,0.0,H7C5SN
c12c(C(=O)OC1=O)ccc(c2)N(=O)=O,6.95614732990507,2.728093937975791,0.0,H3C8NO5
C1C(CCSC1)NC,4.194301279648789,-0.7739393784562707,0.0,H13C6SN
C(=O)N(C)C,5.43328250194063,-0.9708759132521664,0.0,H7C3NO
c1cc2c(cc1)ncc(n2)C(Cl)(Cl)Cl,5.665432300812972,2.7819197641307256,0.0,H5C9N2Cl3
COc1ccsc1,4.374218263930379,-0.3492431743492488,0.0,H6C5SO
[C@@H]1(CCCSC1)C=C,4.708715525220759,-0.6951273684739134,0.0,H12C7S
c1c(c(ccn1)c1ccncc1)C#C,5.468361869683212,1.186070671253765,0.0,H4C6N
N(CCCO)(C)C,4.012141443308428,-0.7060677706635032,0.0,H13C5NO
c1c(c(ccn1)c1ccncc1)CC,5.654949199542534,0.8678627565910575,0.0,H6C6N
N#[B],6.871711630299705,5.080291080750248,0.0,BN
c1(cc2c(cc1)nccn2)C,5.313001700805762,1.204856929030575,0.0,H8C9N2
P(OC(C)C)(OC(C)C)OC(C)C,4.572641503565682,-0.4511767135212721,0.0,PH21(C3O)3
c1(c2ccccc2)oc(nn1)c1ccccc1,4.871552356516622,0.956280540181615,0.0,H10C14N2O
O(Cl)Cl,6.763221176208026,4.086392098810029,0.0,Cl2O
C(C(Cl)Cl)(Cl)(Cl)Cl,7.184435569457127,2.5105030376522337,0.0,HC2Cl5
c1(cc(ccn1)c1ccncc1)CC,5.643223833281445,1.0328582615289634,0.0,H6C6N
c1c(c2c(cc1)C(=O)c1c(C2=O)cccc1)C#C,5.445328611500008,2.2273251728162,0.0,H4C8O
c1cc(ccn1)c1cc(ncc1C)CC,5.31991064123722,0.8561209410559969,0.0,H14C13N2
c1(cc2c(cc1)C(=O)c1c(C2=O)cccc1)NC(=O)C,5.089402801755204,2.214680260423484,0.0,H11C16NO3
c1(cc2c(cc1)nccn2)CC,5.25196077350447,1.207530480147034,0.0,H5C5N
c1(cc2c(cc1)nccn2)C=C,4.919439458688066,1.39496405138525,0.0,H4C5N
C1[C@H](C[C@H](SC1)C)CC,4.685325411506346,-0.927605303985183,0.0,H16C8S
c1(cc(ccn1)c1ccncc1OC)OC,4.956555835252948,0.966693770785787,0.0,H6C6NO
c1c(c2c(cc1)C(=O)c1c(C2=O)cccc1)NC(=O)C,5.03114316088031,2.287753302474448,0.0,H11C16NO3
c1(cc(ccn1)c1ccncc1)C=C,5.138245880652539,1.154350322991013,0.0,H5C6N
c1c(c2c(cc1)nccn2)C#N,5.789883885996096,1.7248298752816482,0.0,H5(C3N)3
c1c(c2c(cc1)C(=O)c1c(C2=O)cccc1)C(=O)O,6.039019098703284,2.6291426902840613,0.0,H8C15O4
c1c(c2c(cc1)C(=O)c1c(C2=O)cccc1)O,5.191160726813541,2.295871247407922,0.0,H8C14O3
c1(cc2c(cc1)nccn2)N(C)C,3.986790673197538,1.0456621645877022,0.0,H11C10N3
[C@@H]1(CC[C@H](SC1)NC(=O)C)C,4.789155486175877,-0.7564914527305517,0.0,H15C8SNO
c1(cc(ccn1)c1ccncc1)F,5.796973335861912,1.2251143212884927,0.0,H7C10N2F
ClC(Cl)(Cl)F,7.595283005060628,2.198160310924868,0.0,CCl3F
C1C(CCSC1)N,4.519017166830599,-0.7423047650976513,0.0,H11C5SN
C(OC)c1ccc(cc1)OC,4.532779974569712,-0.5937435781692328,0.0,H12C9O2
c1cc(c(cn1)C)c1ccncc1N(C)C,4.104115039104363,0.6366336521728955,0.0,H15C13N3
c1cc(ccn1)c1ccnc(c1C)C(Cl)(Cl)Cl,5.850349529262166,2.7186480720716646,0.0,H9C12N2Cl3
c1c(c(ccn1)c1ccncc1)C#N,5.829218738659256,1.4696420426222176,0.0,H7C11N3
[B](c1cc(cc(c1)C(F)(F)F)C(F)(F)F)(c1cc(cc(c1)C(F)(F)F)C(F)(F)F)(c1c(cc(cc1)C(F)(F)F)C(F)(F)F)c1cc(cc(c1)C(F)(F)F)C(F)(F)F,4.845246143022086,0.509905470092781,-1.0,BH12(C4F3)8
C1CC[C@H](S[C@H]1N(=O)=O)N(=O)=O,5.656589096308016,1.9830668768387116,0.0,H8C5S(NO2)2
c1c(c2c(cc1C)nccn2)c1ccccc1,4.724478807778359,1.1953312330821064,0.0,H12C15N2
c1(cc2c(cc1)ncc(n2)C=C)C,5.075384767556534,1.2613372773754237,0.0,H10C11N2
C1CCCS[C@H]1C(=O)O,4.927075764853361,1.0280038132310438,0.0,H10C6SO2
C1CC[C@H](S[C@H]1N(=O)=O)C,5.26354709503139,1.526894481330237,0.0,H11C6SNO2
C1[C@H](C[C@H](SC1)C(=O)O)C,4.883717834252456,1.0817869773760322,0.0,H12C7SO2
c1(cc2c(cc1)nccn2)NC(=O)C,4.89040534476735,1.3541664915988805,0.0,H9C10N3O
c1(cc2c(cc1)nccn2)C#C,5.270192368035714,1.4567538903953392,0.0,H3C5N
c1c(c2c(cc1)nccn2)OC,4.593180253377431,1.2845048427876464,0.0,H8C9N2O
c1c(c2c(cc1)nccn2)C=C,4.760915242611736,1.3740696569544526,0.0,H4C5N
c1c(c2c(cc1)C(=O)c1c(C2=O)cccc1)N,4.4940677891223455,2.053491902924725,0.0,H9C14NO2
c1(cc(ccn1)c1ccncc1)N(C)C,4.099771694074297,0.9163199590235308,0.0,H13(C4N)3
c1cc(c(cn1)C)c1ccnc(c1)C=C,5.201628524407715,0.91407190959726,0.0,H12C13N2
C1[C@H](C[C@H](SC1)N)C,4.315723704459378,-0.7559101631472003,0.0,H13C6SN
c1cc2c(cc1)ncc(n2)C#N,5.6664063377462295,1.866407393877671,0.0,H5(C3N)3
c1cc(c(cn1)OC)c1ccncc1OC,4.93869522167879,0.6893199036581792,0.0,H6C6NO
c1(cc(ccn1)c1ccncc1N)C,4.365069600753122,0.7543659221679264,0.0,H11C11N3
C1CCCS[C@H]1NC,4.362195586092275,-0.8544216830399818,0.0,H13C6SN
c1c(ccs1)C#N,5.535072487456636,0.5679768871064881,0.0,H3C5SN
c1(cc(ccn1)c1ccncc1C)OC,5.135108427142404,0.8254027853414301,0.0,H12C12N2O
c1cc(c(cn1)C=C)c1ccnc(c1)C=C,5.003142415587353,1.072975014261465,0.0,H6C7N
c1cc(ccn1)c1cc(ncc1C)C=C,4.960807393568393,0.8983941877937469,0.0,H12C13N2
c1c(ccs1)C#C,4.934825700309011,0.3087416250469688,0.0,H4C6S
c1(cc(ccn1)c1ccncc1C)O,5.376732027137768,0.9012584145217262,0.0,H10C11N2O
C1C(CCSC1)O,4.778477763638511,-0.5069982688240997,0.0,H10C5SO
C(CC)CC,6.3950639745859,-1.1954723489856405,0.0,H12C5
O=C(CC)C,5.802831666528254,0.079834930603829,0.0,H8C4O
c1c(c2c(cc1)C(=O)c1c(C2=O)cccc1)NC,4.317586802606092,2.047803880149877,0.0,H11C15NO2
c1(c(c2c(cc1)nccn2)C)N(=O)=O,5.646548912006983,2.142520595688984,0.0,H7C9N3O2
C1C(CCSC1)N(=O)=O,4.922844030026317,1.6595076639474429,0.0,H9C5SNO2
[C@@H]1(CCCSC1)c1ccccc1,4.677758137904311,-0.6281122253880311,0.0,H14C11S