smiles,IE,EA,charge,formula_pretty
CC(C)(C)c1cc(c2ccccc2)sc1,4.285333527555485,0.4107783769992239,0.0,H16C14S
C#Cc1ccc2c(c1c1ccccc1)ONO2,4.456326916738908,0.5974631889162993,0.0,H9C14NO2
COc1ccc2c(c1)ONO2,4.100384891725843,-0.0975169127163098,0.0,H7C7NO3
CC(C)(C)c1ccsc1OCCOCCOC,3.958931568604021,-0.4060169757016409,0.0,H22C13SO3
CC(C)(C)c1ccc2c(c1c1ccccc1)ONO2,4.273143328276637,0.0834869867590897,0.0,H17C16NO2
COCCOCCOc1cccc2c1[nH]sn2OCCOCCOC,3.446020585995575,1.584361723982147,0.0,H26C16S(NO3)2
CC(C)(C)c1ccc2c(c1C(=O)O)ONO2,4.512910235678282,0.8508904722526496,0.0,H13C11NO4
CC(C)(C)c1ccc2c(c1NC)ONO2,3.935113868808549,-0.776116721825383,0.0,H16C11(NO)2
C#Cc1ccc2c(c1)ON(OC)O2,4.248921800657262,0.4620592829647649,0.0,H7C9NO3
CCc1cc(OCCOCCOC)sc1,4.118644611940544,-0.5497319076843268,0.0,H18C11SO3
CN(C)c1cscc1OCCOCCOC,3.5459045338044235,-0.6100488489086273,0.0,H19C11SNO3
COCCOCCOCCOc1ccsc1C(F)(F)F,4.869818547822069,0.2456634467394907,0.0,H17C12SO4F3
c1ccc(cc1)c1ccc2c(c1C#N)ONO2,4.620943810639437,0.9810711666774296,0.0,H8C13(NO)2
COCCOCCOc1ccc2c(c1C(F)(F)F)ONO2,4.398754366023786,0.4683494664619503,0.0,H14C12NO5F3
COCCOCCOCCOc1cc2c(cc1C(Cl)(Cl)Cl)ONO2,4.370621553005185,2.86503572522779,0.0,H18C14N(ClO2)3
CNc1ccc(OCCOCCOCCOC)s1,3.248328714887612,-0.4162955834239255,0.0,H21C12SNO4
COCCOCCOCCOc1cc(cs1)OC,3.930658927166951,-0.4280983252596342,0.0,H20C12SO5
Cc1ccc2c(c1)ON(O)O2,4.565094499724728,1.6169850221573143,0.0,H7C7NO3
C=Cc1ccc(c(c1)[O])O[N]N(C)C,3.3935177637264133,2.368999740812433,0.0,H6C5NO
COc1ccc2c(c1C#N)ONO2,4.443532553986733,0.9286011640557263,0.0,H6C8N2O3
CN(C)c1c(ccc2c1ONO2)OCCOCCOCCOC,3.730534875359445,-0.1894879343184583,0.0,H24C15(NO3)2
CN(C)c1cn(C)c(cc1=c1ccn(C)cc1)c1ccccc1,1.8553252884063116,0.1839696639231989,0.0,H23C20N3
CC(C)(C)c1ccc(c2c1ONO2)OCCOCCOC,4.39337966600724,-0.2552352718215842,0.0,H23C15NO5
COCCOn1c2cc(ccc2[nH]s1)C(Cl)(Cl)Cl,4.005700059767696,2.8721965723030736,0.0,H11C10SN2Cl3O2
COCCOCCOc1cc(cs1)N,3.64591866631381,-0.6909287335787666,0.0,H15C9SNO3
COc1ccc2c(c1N(=O)=O)ONO2,4.532211945095332,2.110202334415226,0.0,H6C7N2O5
COCCOc1ccc2c(c1)[nH]sn2OCCOC,3.856140538862383,1.6233513376588236,0.0,H18C12S(NO2)2
c1cc2c(cc1C(Cl)(Cl)Cl)ON(C(F)(F)F)O2,5.033586441111401,2.699115449556848,0.0,H3C8NCl3O2F3
c1c(c(cc2c1ONO2)C(F)(F)F)C(Cl)(Cl)Cl,4.956390542430745,3.2950410308563733,0.0,H3C8NCl3O2F3
Cc1ccc2c(c1C(F)(F)F)ONO2,4.581886941310222,0.5044336608130835,0.0,H6C8NO2F3
COCCOCCOCCOc1cc(c2ccccc2)sc1,4.059753071030718,0.5515440494069481,0.0,H22C17SO4
CN(C)c1c(ccc2c1ONO2)OC,3.690364140680322,-0.1542768770799738,0.0,H12C9N2O3
Cc1ccc2c(c1)ON(C(=O)O)O2,4.517223743432259,0.7256712566610077,0.0,H7C8NO4
c1cc2c(cc1N(=O)=O)ON(C(F)(F)F)O2,5.313712211807433,2.152416050803004,0.0,H3C7N2O4F3
CC(C)(C)c1ccc2c(c1O)ONO2,4.396166299471224,-0.1446354592793794,0.0,H13C10NO3
COCCOCCOCCOc1c(ccc2c1ONO2)Cl,4.535816482007794,1.1703278462169693,0.0,H18C13NClO6
CCc1ccc2c(c1)ON(OCCOCCOCCOC)O2,4.169504497936577,-0.3765424292090755,0.0,H23C15NO6
C=Cn1c2ccc(cc2[nH]s1)OCCOCCOC,3.2025863214672428,2.8765687124338,0.0,H18C13SN2O3
c1ccc(cc1)c1ccc2c(c1C(F)(F)F)ONO2,4.5652135685792015,0.6939726258002339,0.0,H8C13NO2F3
CCc1ccc2c(c1OCCOCCOCCOC)ONO2,4.392795010373083,-0.2367932951914553,0.0,H23C15NO6
COCCOCCOc1ccc2c(c1c1ccccc1)ONO2,4.284871279612707,0.3568968409868831,0.0,H19C17NO5
COCCOCCOCCOc1cc(C#N)cs1,4.645936933369375,0.5717547632608331,0.0,H17C12SNO4
Cc1ccc2c(c1)[nH]sn2OCCOC,3.863222799472714,1.6070676782052034,0.0,H14C10S(NO)2
CC(=O)c1ccc2c(c1)n(OCCOCCOC)s[nH]2,3.831240098095441,0.9825063358817716,0.0,H18C13S(NO2)2
CNc1c(ccc2c1ONO2)OC,3.798529026893084,-0.2579179224252583,0.0,H10C8N2O3
C#Cc1cc2c(cc1C(C)(C)C)ONO2,4.364943405240046,0.4440712956289645,0.0,H13C12NO2
Cc1c(ccc2c1ONO2)C(C)(C)C,4.279072849361546,-0.284050094635313,0.0,H15C11NO2
C=Cn1c2cccc(c2[nH]s1)OCCOC,3.0673497873009183,1.6146302061402822,0.0,H14C11S(NO)2
CC(C)(C)c1ccc2c(c1N)ONO2,4.12829792655757,-0.597197736812086,0.0,H7C5NO
C#Cc1ccc2c(c1)ON(OCCOC)O2,4.210402723516017,0.4438561978000508,0.0,H11C11NO4
COCCOCCOn1c2ccc(cc2[nH]s1)C(Cl)(Cl)Cl,3.9605727715184913,2.709167353817611,0.0,H15C12SN2(ClO)3
COCCOCCOn1c2ccc(cc2[nH]s1)C(F)(F)F,3.9877248862627312,3.9025971331371694,0.0,H15C12SN2(OF)3
CN[N]Oc1ccc(cc1[O])OCCOCCOC,3.357868820899603,2.9151522370208114,0.0,H18C12N2O5
CC(C)(C)c1ccc2c(c1)ON(C)O2,4.082529796623566,-0.5715755794102733,0.0,H15C11NO2
CC(C)(C)c1cc(cs1)NC,3.5816322508631857,-0.6751772498777426,0.0,H15C9SN
CNc1ccc2c(c1)ON(O)O2,3.7123606777946407,-0.3983323149099305,0.0,H8C7N2O3
CCc1ccc2c(c1)ON(N(=O)=O)O2,4.33175915255706,3.2103427631678643,0.0,H4C4NO2
COCCOCCOCCOc1c(ccs1)OCCOC,3.877661752967106,-0.4106027469591935,0.0,H24C14SO6
COCCOCCOCCOc1ccc2c(c1)n(OCCOC)s[nH]2,3.361214305435715,1.304115510256088,0.0,H26C16S(NO3)2
C#Cc1ccc2c(c1)ON(OCCOCCOCCOC)O2,4.221546503582067,0.4412937045068248,0.0,H19C15NO6
COCCOCCOc1cc(cc2c1ONO2)F,4.50211964032278,0.034060697149107,0.0,H14C11NO5F
CC(C)(C)c1ccc2c(c1)ON(OCCOC)O2,4.093611336089088,-0.427857128989126,0.0,H19C13NO4
COCCOCCOCCOn1c2ccc(cc2[nH]s1)O,3.871500034410565,1.487600911060872,0.0,H20C13SN2O5
c1csc(c1O)F,4.5257702431750655,-0.3415833765960996,0.0,H3C4SOF
COn1c2cccc(c3ccccc3)c2[nH]s1,3.895925715432532,3.664854510510486,0.0,H12C13SN2O
c1cc(Cl)sc1Cl,4.840273684394196,1.3330188870691928,0.0,H2C4SCl2
c1c(csc1Cl)F,5.0285119615560685,1.3375808674223664,0.0,H2C4SClF
COCCOCCOC1=C[CH]C=c2c1ns[nH]2.[Cl],4.257352554058889,3.4403138064022643,0.0,H15C11SN2ClO3
c1ccc(cc1)n1c2cccc(c2[nH]s1)O,3.2035411961420324,2.348114971043833,0.0,H10C12SN2O
CCc1ccc2c(c1)[nH]sn2C(C)(C)C,2.858716945285414,2.042219380358438,0.0,H18C12SN2
COCCOn1c2c(cccc2[nH]s1)C(Br)(Br)Br,4.017495057219639,3.117352857568767,0.0,H11C10SBr3(NO)2
CCc1ccc2c(c1)[nH]sn2C=C,3.324003018287476,2.204937972744665,0.0,H12C10SN2
CC(C)(C)n1c2cccc(c2[nH]s1)OC,3.2268260535034643,1.721713091539277,0.0,H16C11SN2O
CC(=O)c1ccc2c(c1)[nH]sn2OCCOCCOCCOC,3.8895631006831537,3.994734364592296,0.0,H22C15SN2O5
COCCOc1cscc1OCCOC,4.325475995041051,-0.3459730979942832,0.0,H16C10SO4
c1cscc1Cl,5.095050957128114,-0.0108024910063249,0.0,H3C4SCl
COCCOCCOn1c2ccc(cc2[nH]s1)N,3.7289004535137793,1.560733929714479,0.0,H17C11S(NO)3
CC(C)(C)c1cc(cs1)OCCOC,4.166353555739624,-0.4900995722258812,0.0,H18C11SO2
COCCOCCOCCOc1cccc2c1[nH]sn2C#N,3.6406872614330497,3.0831241666615825,0.0,H19C14SN3O4
CCc1c(ccs1)OCCOCCOC,4.174264215232688,-0.4442116060694387,0.0,H18C11SO3
C=Cc1ccsc1OCCOCCOCCOC,3.984095840054215,0.114146488334518,0.0,H20C13SO4
COCCOCCOCCOn1c2ccccc2n(Cl)s1,4.572147785658308,4.014578821386385,0.0,H19C13SN2ClO4
CC(C)(C)n1c2cccc(c2[nH]s1)N(=O)=O,3.231486917292932,1.9153701157971228,0.0,H13C10SN3O2
CC(C)(C)n1c2c(cccc2[nH]s1)C(=O)O,3.560728256253788,0.8781243735298632,0.0,H14C11S(NO)2
CC(C)(C)n1c2cc(ccc2[nH]s1)N(C)C,3.0573656829379616,1.5646453838358867,0.0,H19C12SN3
C#Cc1ccsc1OCCOCCOCCOC,4.332823245554755,0.3031875829634374,0.0,H18C13SO4
CC(C)(C)c1cscc1OCCOCCOCCOC,4.408377821595058,-0.7397103963943663,0.0,H26C15SO4
c1csc(c1F)O,4.463216869063762,-0.2777373256962163,0.0,H3C4SOF
C=Cc1ccc2c(c1)[nH]sn2C(C)(C)C,2.936419348499476,2.0913298111096084,0.0,H16C12SN2
CCn1c2ccccc2n(N(C)C)s1,3.164664727407944,1.6712483774259457,0.0,H15C10SN3
CCn1c2ccccc2n(OCCOCCOC)s1,3.648740037833341,1.5514980077947258,0.0,H20C13SN2O3
CC(C)(C)c1ccc(OCCOCCOC)s1,3.9933238842764696,-0.4460704918950795,0.0,H22C13SO3
c1c(c(cs1)F)F,6.057931609140359,0.1174205484363484,0.0,H2C4SF2
CNn1c2ccccc2n(OCCOCCOC)s1,3.667201261066657,1.877999906000332,0.0,H19C12S(NO)3
C=Cn1c2c(cccc2OCCOC)[nH]s1,3.400590633691172,2.5550660733548285,0.0,H14C11S(NO)2
C#Cn1c2ccccc2n(OCCOCCOC)s1,4.000878850174194,2.4739705575062545,0.0,H16C13SN2O3
CN(C)[C]1C(=C(Br)Br)C(=c2ccn(C)cc2)C=CN1C.[Br],3.4933387172291988,1.7066167599637994,0.0,H6C5BrN
CN(C)c1cscc1OCCOCCOCCOC,3.5508384529399337,-0.577911241284164,0.0,H23C13SNO4
CC(C)(C)c1cscc1c1ccccc1,4.685722518113471,-0.1480166832501708,0.0,H16C14S
COCCOCCOCCOc1cscc1C(F)(F)F,4.841214240435511,0.2029457483091392,0.0,H17C12SO4F3
COCCOc1ccsc1c1ccccc1,4.009720207026112,0.3206258704172797,0.0,H14C13SO2
COCCOCCOCCOc1cc(C#N)sc1,4.807184434810187,0.8704170429351508,0.0,H17C12SNO4
C[C@@H]1C=CC=C1NC,3.150757887089276,-0.4572988830444955,0.0,H11C7N
CN[C@@H]1C=CC=C1NC,3.370696527692053,-0.4023919974828458,0.0,H12C7N2
C1=C[C@@H](C#N)C(=C1)C(=O)O,5.839290326000628,1.4253276820341854,0.0,H5C7NO2
C#CC1=CC=C[C@@H]1O,4.52688798886229,1.0638204598177254,0.0,H6C7O
CCC1=CC=C[C@H]1O,4.567603340221103,0.1528702630308545,0.0,H10C7O
CO[C@@H]1C=CC=C1OC,4.1907850624407725,0.4654753592691123,0.0,H10C7O2
CNC1=CC=C[C@@H]1OC,3.223772585209736,0.1077669508209511,0.0,H11C7NO
CN[C@H]1C=CC=C1OC,3.5658345758416545,0.0751909460355819,0.0,H11C7NO
CCC1=CC=C[C@@H]1N,4.229648372034353,0.0412320614446799,0.0,H11C7N
C#CC1=CC=C[C@@H]1F,4.729177378381428,1.344357516985474,0.0,H5C7F
CN(C)C1=CC=C[C@@H]1N(=O)=O,3.5545772508245137,1.6948973884133012,0.0,H10C7(NO)2
CC[C@H]1C=CC=C1N,3.2372594803997345,-0.3906980876967281,0.0,H11C7N
CN[C@@H]1C=CC=C1C(=O)N,4.362832756974603,1.022263484730138,0.0,H10C7N2O
C#C[C@@H]1C=CC=C1F,4.7272000250774,0.3762077179140761,0.0,H5C7F
CCn1c2ccc(cc2[nH]s1)NC,2.9838220390534844,1.797359783549473,0.0,H13C9SN3
c1ccc(cc1)C1=CC=C[C@@H]1C(=O)O,4.246045990044513,0.7672893267423206,0.0,H5C6O
C1=C[C@H](C#N)C(=C1)C#N,5.564823784608597,1.386613990623664,0.0,H4C7N2
CN(C)[C@H]1C=CC=C1O,3.913929632320651,-0.1076527967328728,0.0,H11C7NO
C1=C[C@@H](C(=C1)C(=O)N)C(Cl)(Cl)Cl,5.07271962204104,1.3100070034357487,0.0,H6C7NCl3O
C=C[C@H]1C=CC=C1F,4.542330119945836,0.222379367630856,0.0,H7C7F
C#CC1=CC=C[C@@H]1N,4.379078453826514,0.8301933467460914,0.0,H7C7N
C1=C[C@H](C(=C1)C(Cl)(Cl)Cl)C(=O)O,5.171863646058773,3.647113673281274,0.0,H5C7Cl3O2
C#C[C@H]1C=CC=C1N,3.477538065227782,-0.1272921232306543,0.0,H7C7N
CN(C)C1=CC=C[C@H]1N,3.084398165554012,-0.1889500468900222,0.0,H12C7N2
C1=C[C@H](C(=C1)C#N)C(=N)O,5.266798390089752,1.1420505461897847,0.0,H6C7N2O
C#CC1=CC=C[C@H]1N(=O)=O,4.937006948511771,2.097331366172148,0.0,H5C7NO2
C#C[C@H]1C=CC=C1O,4.133464864944108,-0.0021739489442551,0.0,H6C7O
C=CC1=CC=C[C@@H]1O,4.194692157568715,0.856172256284117,0.0,H8C7O
CC1=CC=C[C@H]1C(Cl)(Cl)Cl,4.647123156509769,2.5075091432241607,0.0,H7C7Cl3
C1=C[C@@H](C#N)C(=C1)C(Cl)(Cl)Cl,5.4210627946391465,3.310155985871097,0.0,H4C7NCl3
C1=C[C@@H](C(=C1)C(=O)O)C(Cl)(Cl)Cl,5.335308409595745,1.536123143263103,0.0,H5C7Cl3O2
c1ccc(cc1)C1=CC=C[C@H]1C(=N)O,4.171603194965064,0.6746655040420593,0.0,H11C12NO
C1=C[C@H](C(=C1)C#N)C(=O)O,5.332378943579533,1.2385050732242235,0.0,H5C7NO2
C[C@H]1C=CC=C1C(Cl)(Cl)Cl,4.912920397525886,3.2317912820595667,0.0,H7C7Cl3
C[C@H]1C=CC=C1C#N,5.051911324424145,0.941882430982878,0.0,H7C7N
COC1=CC=C[C@H]1C#N,4.21987723756647,0.287704419833608,0.0,H7C7NO
C[C@H]1C=CC=C1C(=O)O,5.000814982391239,1.0673873307365285,0.0,H8C7O2
C=C[C@H]1C=CC=C1O,3.9479968535939407,-0.1646754951729234,0.0,H8C7O
CC1=CC=C[C@@H]1c1ccccc1,4.26271279394823,-0.0955767682575241,0.0,HC
C#C[C@@H]1C=CC=C1N(=O)=O,5.808641201505088,2.08699736170056,0.0,H5C7NO2
C=C[C@H]1C=CC=C1N,3.3273169294585387,-0.3031457567307369,0.0,H9C7N
C1=C[C@@H](C(=C1)C(=N)O)C(=N)O,4.873045834272125,0.9318690063533724,0.0,H8C7(NO)2
C1=C[C@@H](C(=C1)C(=O)O)C(=N)O,5.171410916658351,1.258723202179317,0.0,H7C7NO3
CN[C@H]1C=CC=C1C#N,4.459727618615579,1.154328055915903,0.0,H8C7N2
C=CC1=CC=C[C@H]1N(=O)=O,4.603825433819656,2.2745388911949704,0.0,H7C7NO2
CC[C@@H]1C=CC=C1F,4.634079200127962,-0.0468563480484589,0.0,H9C7F
CC[C@@H]1C=CC=C1N(=O)=O,5.327966149650456,2.0315734379979404,0.0,H9C7NO2
CC1=CC=C[C@H]1C(=O)O,4.518794520568553,0.1001934349256772,0.0,H8C7O2
C=C[C@H]1C=CC=C1N(=O)=O,5.404446130428914,2.1360015617352475,0.0,H7C7NO2
C[C@H]1C=CC=C1C(=N)O,4.653457329922821,0.7318497537467921,0.0,H9C7NO
CN(C)[C@H]1C=CC=C1C(Cl)(Cl)Cl,4.171366181095072,3.313332732615527,0.0,H10C8NCl3
C=CC1=CC=C[C@@H]1OC,4.055102517638806,0.8466759513517901,0.0,H10C8O
CCC1=CC=C[C@@H]1C,4.218278666726837,-0.2387138148027587,0.0,H3C2
CNC1=CC=C[C@@H]1C(=O)O,3.304102462506853,-0.0443522878180373,0.0,H9C7NO2
CC[C@H]1C=CC=C1C(=N)O,4.6355336430839085,0.7171535139073968,0.0,H11C8NO
CN(C)C1=CC=C[C@@H]1C#N,3.472346832520634,0.0476182630260155,0.0,H5C4N
CN[C@H]1C=CC=C1c1ccccc1,3.989257477661886,0.6457381675969374,0.0,H13C12N
CCC1=CC=C[C@@H]1N(=O)=O,4.803037115143161,1.661637273107408,0.0,H9C7NO2
C=C[C@H]1C=CC=C1OC,3.80230947179698,-0.085974543013799,0.0,H10C8O
COC1=CC=C[C@H]1C(=O)O,4.46253000275974,-0.0183237876666679,0.0,H8C7O3
C=CC1=CC=C[C@@H]1C,4.083195302713284,0.478802376706517,0.0,H5C4
COC1=CC=C[C@H]1C(=N)O,4.470007963485477,-0.0154588750869151,0.0,H9C7NO2
CC[C@H]1C=CC=C1C(=O)O,4.994347489520441,1.0637365235830658,0.0,H5C4O
C#CC1=CC=C[C@@H]1C#N,4.846582524006953,1.0224371178497678,0.0,H5C8N
CC[C@@H]1C=CC=C1NC,3.1487110032590864,-0.4907495134088093,0.0,H13C8N
C#C[C@H]1C=CC=C1C#N,5.27383175185023,1.1672427773406526,0.0,H5C8N
CC1=CC=C[C@@H]1N(C)C,3.887012906930613,-0.0237798884103539,0.0,H13C8N
CCC1=CC=C[C@@H]1C(=O)O,4.522757828693647,0.1170548873011285,0.0,H5C4O
COC1=CC=C[C@@H]1c1ccccc1,3.889486171377576,-0.2374081309702886,0.0,H12C12O
CN(C)C1=CC=C[C@H]1C(=N)O,3.232678280659093,-0.3616890109737141,0.0,H12C8N2O
CCC1=CC=C[C@H]1NC,4.198495318599816,-0.2019976054110883,0.0,H13C8N
CN(C)[C@@H]1C=CC=C1OC,3.9844751275082673,-0.3852342178292018,0.0,H13C8NO
CCC1=CC=C[C@@H]1OC,4.29644218589201,0.2887157499622845,0.0,H12C8O
C#CC1=CC=C[C@H]1C(=O)O,4.661702839106146,0.900195720183183,0.0,H3C4O
C[C@@H]1C=CC=C1N(C)C,3.0706899248049013,-0.4245466655032941,0.0,H13C8N
CN(C)C1=CC=C[C@H]1OC,3.176505276729222,0.0778390681149177,0.0,H13C8NO
C=CC1=CC=C[C@H]1C(Cl)(Cl)Cl,4.378323762424406,2.542589332757052,0.0,H7C8Cl3
c1ccc(cc1)C1=CC=C[C@H]1C(Cl)(Cl)Cl,4.381419114486198,2.587887075825711,0.0,H3C4Cl
C#C[C@H]1C=CC=C1C(=O)O,5.224187885461651,1.281817242431862,0.0,H3C4O
C#CC1=CC=C[C@H]1C,4.39196206175402,0.6729028567202477,0.0,HC
C#C[C@H]1C=CC=C1OC,3.959996287466856,0.049137953508398,0.0,H8C8O
C#C[C@H]1C=CC=C1C(=N)O,4.893206196181927,0.9482386075247632,0.0,H7C8NO
CNC1=CC=C[C@@H]1N(C)C,3.1085114734974924,-0.2319644201583286,0.0,H7C4N
C#CC1=CC=C[C@@H]1CC,4.389013528717987,0.6698956205651485,0.0,H10C9
C#CC1=CC=C[C@@H]1OC,4.527619901616708,0.9780010667869647,0.0,H8C8O
C#C[C@H]1C=CC=C1C(Cl)(Cl)Cl,5.128714625419525,3.3214503020368285,0.0,H5C8Cl3
CCC1=CC=C[C@@H]1C#N,4.754023782775766,0.2195777325283416,0.0,H9C8N
C=C[C@@H]1C=CC=C1C(=O)O,5.033390451111336,1.1659511073681643,0.0,H4C4O
CN(C)C1=CC=C[C@H]1C(=O)O,3.310329597221062,-0.0691379319090628,0.0,H11C8NO2
C1=C[C@@H](C(=C1)F)F,4.885454505590678,1.6599559769398184,0.0,H4C5F2
CCC1=CC=C[C@@H]1N(C)C,3.897401407831785,-0.0512556771249363,0.0,H15C9N
C#CC1=CC=C[C@@H]1C=C,4.461962914070318,0.7476624331280619,0.0,H8C9
C=CC1=CC=C[C@H]1CC,4.081288290837255,0.4762017711433146,0.0,H4C3
C=CC1=CC=C[C@H]1N(C)C,3.9093878319414217,0.5944806117200643,0.0,H13C9N
C#C[C@H]1C=CC=C1N(C)C,3.260508043218215,-0.2194607511795765,0.0,H11C9N
C=C[C@@H]1C=CC=C1C=C,4.13975041978083,0.5717127679305123,0.0,H10C9
CC[C@H]1C=CC=C1CC,4.176656161187202,-0.1620312806466244,0.0,H14C9
C1=C[C@@H](C(=C1)N)F,3.577267000664142,2.567951697641184,0.0,H6C5NF
C#C[C@H]1C=CC=C1C#C,4.616126173904922,0.8491998752338987,0.0,H2C3
C=C[C@H]1C=CC=C1CC,4.303807161902659,-0.1800907005894259,0.0,H4C3
C#CC1=CC=C[C@@H]1NC,4.196657205887822,0.8391604582917354,0.0,H9C8N
C#CC1=CC=C[C@H]1N(C)C,4.0383898543910615,0.7855832407873096,0.0,H11C9N
C1=C[C@@H](C(=C1)O)F,4.262423104278787,3.049201130342772,0.0,H5C5OF
C1=C[C@@H](C(=C1)F)O,4.628325393757768,0.6767712324923196,0.0,H5C5OF
C#C[C@@H]1C=CC=C1c1ccccc1,4.199826276304156,0.6847540348131589,0.0,H10C13
C1=C[C@@H](C#N)C(=C1)F,5.193609751424082,0.4600914506787377,0.0,H4C6NF
C1=C[C@H](C(=C1)N)N(=O)=O,3.742645826923399,1.7874914609034025,0.0,H6C5(NO)2
C=C[C@H]1C=CC=C1c1ccccc1,4.074017319271297,0.5772874961126946,0.0,H12C13
C1=C[C@H](C(=C1)C#N)F,5.427957206909559,1.7462351824920916,0.0,H4C6NF
C1=C[C@@H](C(=C1)O)N(=O)=O,4.420361170815886,2.081006674670425,0.0,H5C5NO3
C1=C[C@@H](C(=C1)N(=O)=O)O,5.587080859835259,2.395828908134354,0.0,H5C5NO3
C1=C[C@H](C(=C1)O)O,4.228782069081353,0.1685807561894763,0.0,H6C5O2
CC[C@H]1C=CC=C1N(C)C,3.059954617535914,-0.4604514824117358,0.0,H15C9N
C1=C[C@@H](C(=C1)O)N,3.789012599141279,0.0312925238864409,0.0,H7C5NO
c1ccc(cc1)C1=CC=C[C@@H]1O,4.119263268197392,0.9057165154023096,0.0,H10C11O
C1=C[C@H](C#N)C(=C1)O,4.3864354650646415,0.2258997887161968,0.0,H5C6NO
C=CC1=CC=C[C@@H]1c1ccccc1,4.131477250227908,0.5727650647964766,0.0,H12C13
C1=C[C@@H](C(=C1)F)N,4.4491458270946165,0.3023342775009952,0.0,H6C5NF
C1=C[C@H](C(=C1)N(=O)=O)N(=O)=O,5.972607123154011,2.587445187445701,0.0,H4C5(NO2)2
C1=C[C@@H](C(=C1)N(=O)=O)F,5.791776279916666,2.4658205874944543,0.0,H4C5NO2F
C1=C[C@H](C(=C1)N)O,3.3998547371917085,0.1013317551420187,0.0,H7C5NO
CN[C@@H]1C=CC=C1N,3.3058930341499946,-0.2153583819948834,0.0,H5C3N
C1=C[C@H](C(=C1)F)C(=O)O,4.79240456350235,0.4124826014827705,0.0,H5C6O2F
C1=C[C@H](C(=C1)N)N,3.2934692523518607,-0.137384716658198,0.0,H8C5N2
C1=C[C@@H](C#N)C(=C1)N(=O)=O,6.146976251451269,2.2969592794775964,0.0,H2C3NO
C[C@@H]1C=CC=C1F,4.606405289559552,-0.051828319805645,0.0,H7C6F
CN[C@H]1C=CC=C1F,4.235971745252391,0.3456658103328665,0.0,H8C6NF
CNCC[NH](C)[CH][CH]C(=N)O.[F],4.166301124847086,0.9020621870964534,0.0,H16C7N3OF
C1=C[C@@H](C(=C1)C(=O)O)O,5.196647018001022,1.4441415228207917,0.0,H2C2O
C1=C[C@H](C(=C1)C(=O)O)N(=O)=O,5.789987424253559,1.7190403218042776,0.0,H5C6NO4
CN(CCNC)[C@@H]([CH]N(O)[O])N(=O)=O,3.279567163144384,1.8547274026037488,0.0,H7C3(NO)2
CNC[C@@H](F)NC.C=CC(=N)O,4.476210329344758,0.6791788576425462,0.0,H16C7N3OF
CNCC[NH](C)[C@H](C=C(Cl)Cl)F.[Cl],4.688874420871434,2.075429415826511,0.0,H14C7N2Cl3F
C1=C[C@H](C(=C1)O)C(=O)O,4.531952722334244,0.0535027312413149,0.0,H2C2O
C1=C[C@H](C#N)C(=C1)N,3.69385623743583,0.0901759639651573,0.0,H3C3N
CN.C[NH](C)[C]1CCCC1,1.9465846833423712,-0.7896939452060905,0.0,H10C4N
C[C@H](CN(C)C=C)NC.F,3.935697933949632,-0.6566536010053823,0.0,H17C7N2F
C[C@H]1C[NH](C)CC[NH]1C,-0.2614123892930364,0.2428664702325478,0.0,H18C7N2
CC1=CC=C[C@H]1O,4.563207634848004,0.1863750591197459,0.0,H8C6O
CNC[C@H]([NH](C)CC=C(Cl)Cl)O.[Cl],4.508997780185018,2.016198649647413,0.0,H15C7N2Cl3O
C1=C[C@@H](C(=C1)N(=O)=O)C(Cl)(Cl)Cl,5.677864164399216,2.3013919038508903,0.0,H4C6NCl3O2
CNC.C[NH](C)[C]1CCCC1,1.938755062066412,-0.7766963379057414,0.0,H22C9N2
C[NH]1CC[NH](C)[C@@](C1)(O)OC,-0.2830401359628012,-0.159820260469496,0.0,H18C7(NO)2
C1=C[C@H](C(=C1)C(Cl)(Cl)Cl)O,5.033026705657539,3.507971494627418,0.0,H5C6Cl3O
C1=C[C@@H](C(=C1)F)C(=N)O,4.69977893668838,0.2987447231767874,0.0,H6C6NOF
C1=C[C@@H](C(=C1)C(Cl)(Cl)Cl)N,4.773686619898944,3.33701100400649,0.0,H6C6NCl3
[CH][CH][C@@H]1CN(C)[C@H](CC)C[NH]1C,2.275027751871312,-0.2654707168498134,0.0,H10C5N
C1=C[C@H](C(=C1)N(=O)=O)N,5.248376282952085,1.9802736401321452,0.0,H6C5(NO)2
CN(CCNC)CC(=O)F.[H].[H],4.109962349166016,0.5374334774583986,0.0,H15C6N2OF
CN1CC[NH](C)[C](C1)C(=N)O.F,3.1021233616789687,-0.3970093219162662,0.0,H16C7N3OF
C[C@]1(C[NH](C)CC[NH]1C)O,-0.3687825615947075,-0.3207260903294808,0.0,H18C7N2O
C[NH]1C[C@H](N(C)C[C@H]1C#N)N([O])O,2.4144647441040434,0.0984634276588622,0.0,H14C7(N2O)2
C#CC=C.CC[C@@H](CNC)NC,3.7865796374731873,0.5333964945089975,0.0,H10C5N
c1ccc(cc1)[C@H]1C=CC=C1F,4.498907366394269,0.1894159707004292,0.0,H9C11F
C1=C[C@H](C(=C1)C#N)N,4.821016051975311,1.1456336840725272,0.0,H3C3N
CO[C@H]1C=CC=C1F,4.625550989088515,0.5380011531848141,0.0,H7C6OF
C[NH]1C[C@H](N(C)[C@H](C1)OC)O.[H],2.552964660626094,-0.2877864162841432,0.0,H18C7(NO)2
C[NH]1CC[NH](C)[C@@](C1)([C](Cl)Cl)O.[Cl],2.9096022058889504,-0.4786473973785177,0.0,H15C7N2Cl3O
C[NH](CCNC)CC=C(Cl)Cl.[Cl],4.646682057254656,1.565997147424787,0.0,H15C7N2Cl3
C[NH](CCNC)CC(=C(Cl)Cl)C#N.[Cl],4.596197108754131,1.9680167692800752,0.0,H14C8(NCl)3
C[NH]1CC[NH](C)[C@H]([C@H]1C(=O)[O])C(=O)[O],3.691122293371882,0.01436914656515,0.0,H7C4NO2
C[NH]1CCN(C)[C@@](C1)(N(O)[O])OC,2.3680702979050694,-0.4737956185221263,0.0,H17C7(NO)3
C[NH](CCNC)C[C](C(Cl)(Cl)Cl)N(=O)=O,4.575046524588833,2.67732818704244,0.0,H14C7N3Cl3O2