smiles,IE,EA,charge,formula_pretty
C[NH](C[C@H](NC)N(=O)=O)C[CH]N(=O)=O,4.323961597173911,1.8627682331985853,0.0,H7C3(NO)2
C[C@H](CNC)NC.C(#N)C=C,3.949494780410169,0.7847971093502566,0.0,H17C8N3
CN1C[CH][NH](C)C[C@H]1N.N.[H].[H],2.363170452855775,-0.6405311581169371,0.0,H10C3N2
CNCCNC.C=CC(=N)O,4.000667463980426,0.6540558685788711,0.0,H17C7N3O
C[NH](CC=C(Cl)Cl)C[C@@H](NC)O.[Cl],4.271469074412016,1.8637579846996235,0.0,H15C7N2Cl3O
CNC[C@@H](C#N)NC.C(#N)C=C,4.1583552048392445,0.745771944002263,0.0,H7(C2N)2
[CH][CH][C@@H]1CN(C)[C@@H](C[NH]1C)F,2.348388148849699,-0.1928874443387029,0.0,H15C8N2F
CN[C@@H](CNC)C(=N)O.C=CN(=O)=O,4.1310757136066965,2.5157475720057847,0.0,H16C7N4O3
C[NH]1C[C@@H](C(=O)[O])[NH](C)C[C@H]1C(=O)[O],4.010058202349319,0.0243176720447082,0.0,H7C4NO2
CNC[C@H](F)NC.C=CC(=N)O,4.254179635948821,0.5932309642863403,0.0,H16C7N3OF
CC[C@@H]1C[NH](C)C[C@H](CC)[NH]1C,-0.1674967197472141,2.647170662028293,0.0,H12C5N
CNC[C@H](F)NC.C(#N)C=C,4.35792938260929,0.7402412247916801,0.0,H14C7N3F
CNC[C@H](NC)O.C=CC(=N)O,4.093306930504332,1.0188129832946289,0.0,H17C7N3O2
C=C[C@H](CNC)NC.C=CC=C,4.061779519117044,0.4490325975835731,0.0,H10C5N
CN1C[C@@H](C(=O)O)[NH](C)[CH]C1.N,2.5705170971137705,-0.2453148883545508,0.0,H17C7N3O2
C=C=CCN(C)[C@@H](CNC)O,4.185012850640851,0.3944515140316071,0.0,H16C8N2O
CNC[C@H](C#N)NC.C(#N)C=C,4.139579314596267,0.7633086768015347,0.0,H7(C2N)2
C[C@H](CNC)NC.C(#N)C=C,3.63852897964498,0.8481352271170182,0.0,H17C8N3
CN1CC[NH](C)[C@H]([C@H]1N(O)[O])OC,2.412552483148465,-0.2787012617576692,0.0,H17C7(NO)3
CNC[C@@H](NC)OC.C(#N)C=C,4.074002995197224,0.7658982290973655,0.0,H17C8N3O
CN[C@H]1CN(C)CCN1C.N.[H].[H],3.620124647246121,-0.8915954892312583,0.0,H22C7N4
CC[C@H]1C[NH](C)CC[NH]1C,-0.268137595738517,0.2214791551901727,0.0,H10C4N
C#CC(=C)N(C)CCNC.[N](O)[O],3.993007979157119,1.6365668020203883,0.0,H15C8N3O2
CC(=C)C#N.CNCCNC,3.9139499401750073,0.6519897707890778,0.0,H17C8N3
CNCCNC.C(#N)C(=C)C(=N)O,3.9589536261497416,1.46634325009436,0.0,H16C8N4O
C[C@]1(C[NH](C)CC[NH]1C)OC,-0.3130145283634191,-0.0879418580392665,0.0,H20C8N2O
C[NH](C[C@@H](C(=N)O)NC)CC=C(Cl)Cl.[Cl],4.596386674145469,1.7501055283661118,0.0,H16C8N3Cl3O
C=CC=C.CNC[C@@H](F)NC,4.339310812265103,0.309018794761505,0.0,H17C8N2F
CNC[C@H]([NH](C)CC=C(Cl)Cl)OC.[Cl],4.365635981224477,1.8891772676302936,0.0,H17C8N2Cl3O
C[C@]1(C[NH](C)CCN1C)N(O)[O],2.2481174211548933,-0.3019947260803746,0.0,H17C7N3O2
c1c(C(=O)O)ncc(C(Cl)(Cl)Cl)n1,6.182648121628153,2.863296142264153,0.0,H3C6N2Cl3O2
COCCOc1cncc(C#N)n1,5.712016048449732,1.4531604557247193,0.0,H9C8N3O2
c1c(N)[nH]c(=O)cn1,4.276299557640959,0.8038710241049558,0.0,H5C4N3O
CNC[C@H](NC)OC.C=CC(=N)O,3.782741773827729,0.6772159127627675,0.0,H19C8N3O2
C#C[C@H](CN(C)C=C)NC.[N]([O])O,3.903028634938528,1.489748319186765,0.0,H15C8N3O2
C(#N)c1cnc(cn1)C(=O)O,6.350212811139135,2.2055220705438843,0.0,H3C6N3O2
COCCOc1cncc(=O)[nH]1,4.707546611248835,0.894385540059011,0.0,H10C7N2O3
CN(C)c1cncc(=O)[nH]1,4.109687032546935,0.8062205937654654,0.0,H9C6N3O
C=CC=C.CNC[C@H](NC)O,4.082737525602715,0.5764994680426754,0.0,H18C8N2O
C(#N)c1cncc(N)n1,5.121931499544735,1.3565162544615306,0.0,H4C5N4
CC(=O)c1cncc(C(=O)O)n1,5.768757060087955,1.700988681177114,0.0,H6C7N2O3
CC(C)(C)c1c(=O)[nH]ccn1,4.8798439481775855,0.8072418859825121,0.0,H12C8N2O
CNCCNC.COC(=C)C#N,3.9421609423839983,0.7197303802564421,0.0,H17C8N3O
C=Cc1cncc(=O)[nH]1,4.879236500291517,1.464412999697379,0.0,H6C6N2O
C=Cc1cncc(NC)n1,4.368550189815869,0.85328383863598,0.0,H9C7N3
C[C@H](CNC)NC.C=CC(=N)O,3.930580737976561,0.57235661920422,0.0,H19C8N3O
COCCOc1cncc(C(=O)O)n1,5.610436393327836,1.4776934149063892,0.0,H5C4NO2
c1c(C(=O)O)nc(cn1)N,4.984456875310206,1.3905123805539916,0.0,H5C5N3O2
C[C@H](CNC)NC.C=CC(=N)O,4.038043526944966,0.6589388752214291,0.0,H19C8N3O
c1c(C(=O)O)nc(cn1)Cl,6.16090210883849,1.7657794786769956,0.0,H3C5N2ClO2
CC(=O)c1cncc(=O)[nH]1,5.331350051224581,1.966356167367485,0.0,H3C3NO
CC[C@H](CN(C)C=C)NC.F,4.077268217042365,-0.7855637278938956,0.0,H19C8N2F
CC[C@]1(C[NH](C)CCN1C)N(O)[O],2.235618927779433,-0.3230703646571782,0.0,H19C8N3O2
CN[C@@H](CNC)C(=N)O.C=CC(=N)O,3.975345937944076,0.8036627944289649,0.0,H9C4N2O
C[C@H](C=C(Cl)Cl)[NH](C)CCNC.[Cl],4.664744832357973,1.6841662281600294,0.0,H17C8N2Cl3
C(#N)c1cnc(cn1)C(F)(F)F,6.546922473744052,2.049660833965026,0.0,H2C6(NF)3
CNc1cncc(Cl)n1,4.618185670214734,0.679995063100796,0.0,H6C5N3Cl
CNC[C@H](NC)OC.C(#N)C=C,4.068846606667284,0.7348172367906955,0.0,H17C8N3O
c1c(C(=O)O)ncc(C(F)(F)F)n1,6.287405767064774,2.000170973120112,0.0,H3C6N2O2F3
CC(=O)c1cncc(C#N)n1,5.947493162827959,1.8771580456446828,0.0,H5C7N3O
C=CC=C.CNC[C@@H](NC)O,4.070918905932194,0.3865618562791497,0.0,H18C8N2O
CN(C)c1c(=O)[nH]ccn1,3.887598259170409,0.6090450260104263,0.0,H9C6N3O
COc1cncc(N)n1,4.3900180233446005,0.3688483556121356,0.0,H7C5N3O
C#Cc1cncc(n1)N(C)C,4.365304911195926,0.8845752592966165,0.0,H9C8N3
C(#N)c1cncc(n1)O,5.962173005085424,1.5515416412523335,0.0,H3C5N3O
CCc1cncc(N)n1,4.595851445268272,0.4819437214442588,0.0,H3C2N
c1c(F)nc(cn1)N,4.86328902932255,0.692160459202205,0.0,H4C4N3F
C=Cc1cncc(N)n1,4.569914890252766,0.9374152387768846,0.0,H7(C2N)3
c1c(C(=O)O)nc(cn1)F,6.281384500072454,1.765959277894217,0.0,H3C5N2O2F
CNc1cncc(n1)OC,4.1851576777895385,0.2964515790386941,0.0,H9C6N3O
CCc1cncc(NC)n1,4.354164622343523,0.3934763859284431,0.0,H11C7N3
c1cnc(c(C(Cl)(Cl)Cl)n1)C(F)(F)F,6.282847541895171,2.885822520396323,0.0,H2C6N2(ClF)3
CCc1cncc(n1)N(C)C,4.193513681515105,0.4229888079458761,0.0,H13C8N3
CN(C)c1cncc(C#N)n1,4.626052835035443,1.2523510008537415,0.0,H8C7N4
COc1cncc(C#N)n1,5.750471908107647,1.4569437333353563,0.0,H5C6N3O
CCc1cncc(=O)[nH]1,4.908014601347167,0.9916807437453828,0.0,H8C6N2O
C=Cc1cncc(C#N)n1,5.633361431833327,1.5614585634280955,0.0,H5C7N3
CCc1cncc(C#N)n1,5.943305540378423,1.436542583328992,0.0,H7C7N3
COCCOc1cncc(N)n1,4.436606331607981,0.3565740296140576,0.0,H11C7N3O2
c1c(C(=O)O)ncc(=O)[nH]1,5.490281545523976,1.2621510991153628,0.0,H4C5N2O3
C#Cc1cncc(C(=O)O)n1,5.936006429519329,1.6431854187518184,0.0,H4C7(NO)2
CN(C)c1cncc(C(=O)O)n1,4.495534428287646,1.3003904214634532,0.0,H9C7N3O2
c1c(C(F)(F)F)nc(cn1)N,5.089988847883069,1.0587179471054695,0.0,H4C5(NF)3
c1c(C(Br)(Br)Br)[nH]c(=O)cn1,5.288882760121487,3.062750383128878,0.0,H3C5Br3N2O
Cc1cncc(C#N)n1,5.976390569472278,1.457777639799679,0.0,H5(C2N)3
C(#N)c1cncc(n1)N(=O)=O,6.751899090824372,2.706823727119263,0.0,H2C5(N2O)2
CNc1cncc(n1)N(C)C,3.7502327063244594,0.1997533414101782,0.0,H12C7N4
Cc1c(NC)nccn1,4.366842942150106,0.3157447848949233,0.0,H3C2N
CN(C)c1c(N)nccn1,3.8324518346304095,0.3952512538813608,0.0,H5C3N2
CNc1cncc(NC)n1,3.771326187406521,0.1759461887500948,0.0,H5C3N2
CN(C)c1cncc(n1)OC,4.089995476522381,0.3219732774592558,0.0,H11C7N3O
COc1cncc(C(=O)O)n1,5.637595866026095,1.4840546446044756,0.0,H6C6N2O3
Cc1cncc(C(=O)O)n1,5.726626422767003,1.461628551303511,0.0,H3C3NO
c1c(C(Cl)(Cl)Cl)[nH]c(=O)cn1,5.385990912736451,2.9202407630888048,0.0,H3C5N2Cl3O
Cc1cncc(N)n1,4.592595937888836,0.4933042565149663,0.0,H7C5N3
CN(C)c1c(nccn1)N(C)C,3.584347274850734,0.2328078420556267,0.0,H7(C2N)2
c1c(C(=O)O)[nH]c(=O)cn1,5.447063674640594,1.9096279722922191,0.0,H4C5N2O3
c1ccc(cc1)c1cncc(=O)[nH]1,4.780519839221233,1.2992477038893413,0.0,H8C10N2O
CC(=O)[N]c1c([nH]cc[nH]1)[N]C(=O)C,4.383858220478578,1.5531911735721224,0.0,H5C4N2O
C(#N)c1cncc(C(Br)(Br)Br)n1,6.220047586387954,2.949152776791016,0.0,H2C6(BrN)3
CNc1c(N)nccn1,3.941352138424554,0.2080484025242186,0.0,H8C5N4
CN(C)c1cncc(n1)N(C)C,3.7466305612902944,0.2272628150982201,0.0,H7(C2N)2
C#Cc1cncc(=O)[nH]1,5.087174369007334,1.4737281720514148,0.0,H4C6N2O
CN(C)c1cnc(cn1)N(C)C,3.2796175150884666,0.4059810726117576,0.0,H7(C2N)2
c1c(C(=O)O)nc(cn1)C(F)(F)F,6.253807972095819,1.8148617864550036,0.0,H3C6N2O2F3
CN(C)c1cnc(cn1)N,3.4965592198328523,0.4492255671117164,0.0,H5C3N2
CNc1cnc(cn1)NC,3.414031928046461,0.3949046434387129,0.0,H5C3N2
CNc1c(NC)nccn1,3.802843280238085,0.1627272494948557,0.0,H5C3N2
c1c([nH]c(=O)cn1)N(=O)=O,5.7936639281721,2.8388945705279185,0.0,H3C4(NO)3
c1c(C(Cl)(Cl)Cl)nc(cn1)N,4.965327139115834,2.761909701579134,0.0,H4C5(NCl)3
c1c(C(F)(F)F)[nH]c(=O)cn1,5.539752731192129,1.621677208966139,0.0,H3C5N2OF3
CN(C)c1cncc(N)n1,3.892324865664341,0.2744326551197447,0.0,H5C3N2
c1ccc(cc1)c1cncc(C(=O)O)n1,5.2549645102750215,1.4973036605966628,0.0,H8C11(NO)2
CNc1cnc(cn1)N(C)C,3.344565632479862,0.4045772291570757,0.0,H12C7N4
CC(C)(C)c1cncc(=O)[nH]1,4.872928887907255,0.9747662972018588,0.0,H12C8N2O
CN(C)c1cncc(F)n1,4.448336231279972,0.6333185409745057,0.0,H8C6N3F
COc1cncc(=O)[nH]1,4.760970947035821,0.8998958915504773,0.0,H6C5(NO)2
c1ccc(cc1)c1cncc(C#N)n1,5.339749827182095,1.4791671235921968,0.0,H7C11N3
C(#N)c1cncc(C(F)(F)F)n1,6.537851798389601,1.873552118229418,0.0,H2C6(NF)3
CNc1c(nccn1)N(C)C,3.7165112111266354,0.3125519453347807,0.0,H12C7N4
CC(C)(C)c1cncc(C#N)n1,5.8398814459520505,1.3661714847617987,0.0,H11(C3N)3
C=Cc1cncc(n1)N(C)C,4.226478569629398,0.8556288122941624,0.0,H11C8N3
CNc1cncc(C#N)n1,4.850552234972929,1.2565038743665355,0.0,H3C3N2
C(#N)c1cnc(cn1)N(=O)=O,6.825115819859638,2.879003369372731,0.0,H2C5(N2O)2
CNc1cncc(F)n1,4.6165591260702055,0.5991409231151921,0.0,H6C5N3F
c1c(C(=O)O)nc(cn1)N(=O)=O,6.46846946899459,2.579003767184622,0.0,H3C5N3O4
CNc1cnc(cn1)N,3.58308399995949,0.4421812963078992,0.0,H8C5N4
Cc1cncc(=O)[nH]1,4.920887550575207,0.98570683272701,0.0,H6C5N2O
C#Cc1cncc(N)n1,4.766730552082299,0.9736019955595112,0.0,H5(C2N)3
c1c(N)nc(cn1)N(=O)=O,5.261301391226516,2.319839921404855,0.0,H2C2N2O
CNc1cncc(N)n1,3.9353884071802896,0.2397337378966768,0.0,H8C5N4
c1c(C(=O)O)ncc(n1)N(=O)=O,6.528863478293351,2.787953047668998,0.0,H3C5N3O4
C(#N)c1cncc(C(=O)O)n1,6.323771215558372,1.882847673899596,0.0,H3C6N3O2
C#Cc1cncc(C#N)n1,6.083278585987136,1.6769845970080497,0.0,H3C7N3
C=Cc1cncc(C(=O)O)n1,5.549647628476668,1.532687501957844,0.0,H6C7(NO)2
Cc1cnc(cn1)NC,4.2752169227984265,0.4484182516131114,0.0,H3C2N
CCc1cncc(C(=O)O)n1,5.690853279023576,1.4463985982652958,0.0,H8C7(NO)2
CNc1cncc(=O)[nH]1,4.129703533311476,0.7677270926011261,0.0,H7C5N3O
CC(C)(C)c1cc(cc(c1C(C)(C)C)OCOC)OC,3.9877154330293703,-0.3117929603635274,0.0,H28C17O3
CNc1cnc(cn1)N(=O)=O,5.133477937347925,1.940788691233684,0.0,H6C5(N2O)2
CNc1c(nccn1)N(=O)=O,5.133263604160311,2.230042346499977,0.0,H6C5(N2O)2
CC(C)(C)c1cnc(cn1)C(=O)O,5.615502464550081,1.3338421647764336,0.0,H12C9(NO)2
CC(C)(C)c1cncc(n1)N(C)C,4.144456117046138,0.4045145014748414,0.0,H17C10N3
CC(C)(C)c1ccc(c(c1OCCOC)C(C)(C)C)OCOC,4.409171904198592,-0.5623284953784604,0.0,H32C19O4
CC(C)(C)c1cncc(n1)OCCOCCOC,5.0786658754092056,0.5238855389667152,0.0,H22C13N2O3
C#Cc1cncc(NC)n1,4.540288082463666,0.8922181587764499,0.0,H7C7N3
CNc1c(C(F)(F)F)nccn1,4.888700271292327,0.9736924598051702,0.0,H2C2NF
CC(C)(C)c1cc(cc(c1OCCOC)C(C)(C)C)OCOC,4.140454957881593,-0.529704680188297,0.0,H32C19O4
CNc1c(c2ccccc2)nccn1,4.251185629965766,0.6972385823515652,0.0,H11C11N3
Cc1cncc(NC)n1,4.355208064629187,0.4075109564779269,0.0,H3C2N
CC(C)(C)c1ccc(c(c1OC)C(C)(C)C)OC,4.275812065695936,-0.8422719362046336,0.0,H13C8O
CC(C)(C)c1cc(cc(c1OC)C(C)(C)C)OC,4.066476916913961,-0.7549239382446102,0.0,H13C8O
C=Cc1cncc(n1)OCCOCCOCCOC,4.971033469717076,0.991418061375589,0.0,H20C13(NO2)2
CNc1cncc(n1)N(=O)=O,4.965187433153551,2.2472805622561283,0.0,H6C5(N2O)2
CNc1cncc(C(F)(F)F)n1,4.813599194736161,0.95380177087427,0.0,H2C2NF
CC(C)(C)c1ccc(c(c1OCOC)C(C)(C)C)OCOC,4.446763396963069,-0.4276438624896399,0.0,H15C9O2
CNc1cnc(cn1)c1ccccc1,4.114978245322709,0.5716186736859528,0.0,H11C11N3
COCCOCCOCCOc1cncc(C(F)(F)F)n1,5.685473939463554,1.1385782946977998,0.0,H17C12N2O4F3
CNc1cncc(C(=O)O)n1,4.709468951295639,1.3101739888148587,0.0,H7C6N3O2
CC(C)(C)c1c2CCCCc2c(c(c1O)O)C(C)(C)C,3.922128604591853,-0.2504508601872657,0.0,H14C9O
COCCOc1c(=O)[nH]ccn1,4.676539470635907,0.7010985688553775,0.0,H10C7N2O3
CN(C)c1cnc(cn1)N(=O)=O,4.917051393081783,1.9516031373692384,0.0,H4C3N2O
CC(C)(C)c1cc(cc(c1OCOC)C(C)(C)C)OCOC,4.201877696273732,-0.5051700366224394,0.0,H15C9O2
Cc1cnc(cn1)N(C)C,4.114138281603664,0.4693114378602332,0.0,H11C7N3
CNc1cncc(c2ccccc2)n1,4.324721012475129,0.748766720067215,0.0,H11C11N3
CC(C)(C)c1cnc(C#N)cn1,5.821132345322985,1.3051795842089633,0.0,H11(C3N)3
CN(C)c1c(nccn1)OCCOCCOC,3.9919922571149073,0.2724788097308193,0.0,H19C11(NO)3
CNc1cnccn1,4.468921583305564,0.4825677002459998,0.0,H7C5N3
Cc1cncc(n1)N(C)C,4.194094826878063,0.4349452995335015,0.0,H11C7N3
CNc1cnc(cn1)C(F)(F)F,4.867256522558455,0.8005283151302138,0.0,H2C2NF
CN(C)c1c(nccn1)N(=O)=O,4.862105687870644,2.0575893740657194,0.0,H4C3N2O
CC(C)(C)c1cc(cc(c1OCCOC)C(C)(C)C)OCCOC,4.068682219972834,-0.7343539089473778,0.0,H17(C5O)2
CC(C)(C)c1ccc(c(c1OC)C(C)(C)C)OCOC,4.376476419665414,-0.7634773142985067,0.0,H28C17O3
CN(C)c1cncc(n1)N(=O)=O,4.721085063849023,2.2449251094927605,0.0,H4C3N2O
Cc1c(nccn1)N(C)C,4.191901635598333,0.4765451543185919,0.0,H11C7N3
c1ccc(cc1)c1c2CCCCc2c(c(c1O)O)C(F)(F)F,4.4460422708049006,0.3494040585443145,0.0,H15C17O2F3
c1cnc(cn1)N,4.731010416111166,0.5715081764206844,0.0,H5C4N3
CN(C)c1cnccn1,4.286153496344559,0.5061194713503938,0.0,H3C2N
COCCOCCOCCOc1cncc(=O)[nH]1,4.585193995213194,0.8069752851712111,0.0,H18C11N2O5
COCCOCCOc1c(nccn1)OCCOC,4.706273904890258,0.5324341802457639,0.0,H20C12N2O5
COCCOCCOCCOc1cnc(cn1)C(Br)(Br)Br,5.472075488878181,2.804480491200229,0.0,H17C12Br3(NO2)2
C(#N)c1cncc(C(Cl)(Cl)Cl)n1,6.439596182522655,2.8556076936452883,0.0,H2C6(NCl)3
c1c(N)nc(cn1)N,4.103045430357815,0.3075539542693151,0.0,H3(CN)2
CC(C)(C)c1cncc(N)n1,4.540564231746975,0.4694566323611071,0.0,H13C8N3
c1cnc(c(C(=O)O)n1)C(=O)O,5.987154293588537,1.7076659765385558,0.0,H2C3NO2
CN(C)c1cnc(cn1)C(F)(F)F,4.647645389222452,0.8457791376109527,0.0,H8C7(NF)3
c1c(N)ncc(N)n1,3.7569128969786103,0.4980242071029352,0.0,H3(CN)2
CC(C)(C)c1cncc(C(=O)O)n1,5.597703424898645,1.392996284653782,0.0,H12C9(NO)2
CC(=O)c1c2CCCCc2c(c(c1O)O)C(F)(F)F,4.550853348513192,1.4065161491540494,0.0,H13C13(OF)3
CN(C)c1cncc(C(F)(F)F)n1,4.589228934588027,0.9620502460908028,0.0,H8C7(NF)3
C(#N)c1cncc(C#N)n1,6.611634154141575,1.987423677902916,0.0,HC3N2
c1c(C(=O)O)nc(cn1)C(=O)O,6.074086735623132,1.733352888875379,0.0,H2C3NO2
CN(C)c1c(C(F)(F)F)nccn1,4.633116434085968,1.0074192693842634,0.0,H8C7(NF)3
c1cnc(cn1)C(=O)O,5.8500016398880685,1.5163210709157284,0.0,H4C5(NO)2
CN(C)c1cncc(C(Cl)(Cl)Cl)n1,4.509803245311195,2.706215351333958,0.0,H8C7(NCl)3
CC(=O)c1c2CCCCc2c(c(c1O)O)C(=O)O,4.476149427549535,1.4299756246888138,0.0,H14C13O5
c1c(C(=O)O)nc(cn1)C(Cl)(Cl)Cl,6.165968397764663,1.8037974935592505,0.0,H3C6N2Cl3O2
c1c(C(=O)O)ncc(C(=O)O)n1,6.091173405738664,2.1490561061342306,0.0,H2C3NO2
CC(C)(C)c1c(ccc(c1C(C)(C)C)OCOC)OC,3.6105806598076016,0.0423169765941566,0.0,H28C17O3
CC(C)(C)c1ccc(c(c1C(C)(C)C)OC)OC,4.012347553217841,-0.2538156865761265,0.0,H13C8O
c1cnc(C#N)c(C#N)n1,6.626927809029075,1.9078083661039276,0.0,HC3N2
CN(C)c1c(nccn1)OC,3.9727428425390823,0.3014802808735113,0.0,H11C7N3O
CC(C)(C)c1cc(cc(c1OCOC)C(C)(C)C)OCCOC,4.125941374464309,-0.7012890897516626,0.0,H32C19O4
CC(C)(C)c1cc(c(c(c1)OC)C(C)(C)C)OC,4.335694549963227,-0.798330326865107,0.0,H13C8O
CC[C@@H]1C=CC=C1c1ccccc1,4.019767531599063,0.4824703896134452,0.0,H14C13
CC(C)(C)c1cc(c(c(c1)OCOC)C(C)(C)C)OCOC,4.420686327802832,-0.7513031479669734,0.0,H15C9O2
c1cnc(c(N)n1)N,4.086081135277345,0.3151018152708276,0.0,H3(CN)2
CC(C)(C)c1cc(cc(c1OC)C(C)(C)C)OCOCCOC,4.1629805577736985,-0.648009341652505,0.0,H32C19O4
CNc1c2CCCCc2c(c(c1O)O)OCCOCCOC,4.129517693164962,-0.629268004426558,0.0,H25C16NO5
CC(C)(C)c1cc(c(c(c1)OCOC)C(C)(C)C)OC,4.38229536730214,-0.8967902621428947,0.0,H28C17O3
CN(C)[C@H]1C=CC=C1N(C)C,3.10040265253665,-0.2689455098847246,0.0,H16C9N2
CO[C@@H]1CCCC[C@@H]1[C]([NH])O,5.783557665131957,-1.0179465292971144,0.0,H15C8NO2
CC(C)(C)c1ccc(c(c1C(C)(C)C)OCOC)OC,4.129132290175766,-0.2129575841885524,0.0,H28C17O3
CC(C)(C)c1cc(cc(c1OC)C(C)(C)C)OCOC,4.097662985973875,-0.6228115811449242,0.0,H28C17O3
CC(C)(C)c1ccc(c(c1OCOCCOC)C(C)(C)C)OC,4.3494705416211215,-0.4578124244420904,0.0,H32C19O4
CC(C)(C)c1ccc(c(c1OC)OCOC)C(C)(C)C,4.189988514766446,-0.6978214696304348,0.0,H28C17O3
CC(C)(C)c1ccc(c(c1OCOC)OCOC)C(C)(C)C,4.2147762731816325,-0.5562476109647831,0.0,H15C9O2
CC(C)(C)c1ccc(c(c1OCOC)C(C)(C)C)OC,4.327475351475732,-0.7556445746035023,0.0,H28C17O3
CCC1=CC=C[C@@H]1c1ccccc1,4.259420670932377,-0.137175583566568,0.0,H14C13
CC(C)(C)c1cc(c(c(c1)OCCOC)C(C)(C)C)OCCOC,4.317879877374798,-0.9084099774830974,0.0,H17(C5O)2
C[NH2][C@@H]1CCCC[C@@H]1[NH3],0.0980059689205519,-0.5067812335459165,0.0,H18C7N2
CC(C)(C)c1c(ccc(c1C(C)(C)C)OC)OC,3.599246832710924,0.028060361151438,0.0,H13C8O
CNc1cncc(C(Cl)(Cl)Cl)n1,4.70942361713387,2.744112534057058,0.0,H2C2NCl
CC(C)(C)c1ccc(c(c1OC)OC)C(C)(C)C,4.26509979831244,-0.7442602295690448,0.0,H13C8O
CC(C)(C)c1cc(c(c(c1)OCOCCOC)C(C)(C)C)OC,4.412741017332882,-0.8235627737216418,0.0,H32C19O4
CC(C)(C)c1cc(cc(c1OCCOC)C(C)(C)C)OC,4.124240439834102,-0.6548003125630202,0.0,H10C6O
CC(C)(C)c1cc(cc(c1OC)C(C)(C)C)OCCOC,4.021387814403715,-0.6356434275789069,0.0,H10C6O
CC(C)(C)c1cc(cc(c1C(C)(C)C)OC)OCOC,4.035924013207113,-0.305538731269189,0.0,H28C17O3
CC(C)(C)c1ccc(c(c1OCOC)C(C)(C)C)OCCOC,4.345115914749476,-0.6349371887685265,0.0,H32C19O4
CC(=O)c1c2CCCCc2c(c(c1O)O)N(C)C,3.873064841367159,1.0060170286829817,0.0,H19C14NO3
CC(=O)c1c2CCCCc2c(c(c1O)O)OCCOCCOC,3.978370251957677,0.769062113032851,0.0,H24C17O6
C[NH2][C@H]1CCC[C@H](C1)[NH3],-0.2119366157825424,-0.2590873588582325,0.0,H18C7N2
CC(C)(C)c1ccc(c(c1OCCOC)OCOC)C(C)(C)C,4.32109932422245,-0.7116284169555,0.0,H32C19O4
CC(C)(C)c1c(ccc(c1C(C)(C)C)OCCOC)OCCOC,3.665213243626204,0.0079757230756514,0.0,H17(C5O)2
CC(C)(C)c1ccc(c(c1OCCOC)C(C)(C)C)OC,4.309442160576145,-0.6086774631898151,0.0,H10C6O
CC(C)(C)c1cc(c(c(c1)OCOC)C(C)(C)C)OCCOC,4.323944418623432,-0.8298265431243634,0.0,H32C19O4
CN(C)C1=CC=C[C@H]1c1ccccc1,3.1305700743338094,-0.3293609535961876,0.0,H15C13N
CN(C)[C@@H]1C=CC=C1c1ccccc1,4.106661030181931,0.3692895268392022,0.0,H15C13N
c1ccc(cc1)[C@@H]1CCC[C@@H](C1)F,5.210623478642082,-0.680242314287534,0.0,H15C12F
CC[C@@H]1CCC[C@H](CC)C1,5.838852969929212,-0.9714294771532876,0.0,H2C
c1ccc(cc1)[C@@H]1CCC[C@@H](C1)N(=O)=O,5.524406425925553,1.3373271131436923,0.0,H15C12NO2
C=CC1(CC)CCCCC1,5.340546162887767,-1.0266551167555007,0.0,H9C5
C[NH](C)[C@H]1CCC[C@H](C1)[NH3],-0.2006056322756193,-0.301673917469452,0.0,H10C4N
CC[C@H]1CCCC[C@H]1OC,5.306993917054205,-0.9142701394743198,0.0,H18C9O
CC(C)(C)c1cc(c(c(c1)OC)OCOC)C(C)(C)C,4.120016204467538,-0.8452206706082506,0.0,H28C17O3
C[NH](C)[C@H]1CCC[C@H](C1)C(=O)[O],3.894632279446887,-0.1809178531861106,0.0,H17C9NO2
CC(C)(C)c1cc(c(cc1OCOC)C(C)(C)C)OCOC,3.6953602623267217,-0.4170983002026331,0.0,H15C9O2
CC(C)(C)c1cc(c(cc1OC)C(C)(C)C)OCOC,3.914191147321253,-0.8985194693945231,0.0,H28C17O3
CC(C)(C)c1cc(c(cc1OC)C(C)(C)C)OCCOC,3.4856030023889617,-0.4859562526347871,0.0,H10C6O
C[NH2][C@H]1CCC[C@H](C1)C(=O)[O],3.844915973633397,-0.2158701083957566,0.0,H15C8NO2
CCC1(CC)CCCCC1,5.706103967134913,-0.9841351416802352,0.0,H2C
C[NH2][C@@H]1CCC[C@@H](C1)[NH2]C,-0.7025833366336882,0.113309172285517,0.0,H10C4N
CC[C@@H]1CCC[C@@H](C1)OC,5.374675646529431,-0.9827796718986064,0.0,H18C9O
c1ccc(cc1)[C@H]1CCCC[C@H]1O,5.026094385205942,-0.7018257118401379,0.0,H16C12O
C=C[C@@H]1CCC[C@@H](C1)C(=N)O,5.727838805874489,-0.9896292980469296,0.0,H15C9NO
c1ccc(cc1)[C@@H]1CC[C@H](CC1)F,5.183146089898946,-0.7340837624909908,0.0,H15C12F
C=C[C@@H]1CC[C@H](CC1)c1ccccc1,5.143782507456853,-0.7641825272461573,0.0,H9C7
C[NH2][C@@H]1CCC[C@@H](C1)[NH](C)C,-0.6929828774085762,0.1893851810178604,0.0,H22C9N2
CC(C)(C)c1cc(c(cc1OCCOC)OCCOC)C(C)(C)C,3.994381743160921,-0.8153463943330279,0.0,H17(C5O)2
COC1(CCCCC1)c1ccccc1,5.458609367622193,-0.773515971843517,0.0,H18C13O
CC(C)(C)c1cc(c(cc1OC)OC)C(C)(C)C,3.9818433497253856,-0.830699144173559,0.0,H13C8O
c1ccc(cc1)[C@@H]1CC[C@H](CC1)N(=O)=O,5.474164320503041,1.3293720933012083,0.0,H15C12NO2
C[NH](C)[C@@H]1CCCC[C@@H]1[NH3],0.1676249720545457,-0.6690575593132961,0.0,H10C4N
c1ccc(cc1)[C@@H]1CC[C@H](CC1)c1ccccc1,5.308332714060816,-0.8929205199405259,0.0,H10C9
CC(C)(C)c1cc(c(c(c1)OCCOC)OCCOC)C(C)(C)C,4.274369228327123,-0.8402708355228241,0.0,H17(C5O)2