smiles,IE,EA,charge,formula_pretty
[N]([Si](C(F)(F)F)(F)F)[Si](F)(F)C(F)(F)F,5.579449819082219,-0.7129533229075604,-1.0,Si2C2NF10
C1=COC(=C[C@@H]1N)N,3.886409089045265,-0.7193322536099003,0.0,H8C5N2O
C1C=COC(=C1)N,3.703487344842506,-0.7304272463919914,0.0,H7C5NO
C1C=C(O)OC=C1N,3.5641951226149104,-0.4960317001663497,0.0,H7C5NO2
C1=COC(=C(C1)O)O,3.742584135994184,-0.4666396422639081,0.0,H6C5O3
CNC1=C[C@@H](C=CO1)N,3.79094059643794,-0.9275347040533232,0.0,H10C6N2O
CCc1cccn1C,4.03651024709834,-0.9358946752003248,0.0,H11C7N
C1C=C(N)OC=C1O,3.756983061531719,-0.7377063868138065,0.0,H7C5NO2
C1=COC=C([C@@H]1N)N(=O)=O,5.159005380091548,1.8850822727396008,0.0,H6C5N2O3
CNC1=COC=C[C@H]1N,3.4607045616663528,-1.1814749246954306,0.0,H10C6N2O
CNc1cc(c[nH]1)N(=O)=O,3.777092459241976,1.6114698596917152,0.0,H7C5N3O2
CN(C)[C]1[C](CC=CO1)C(=O)N,3.831632407341749,0.1475327147978533,0.0,H6C4NO
CCC1=COC=C[C@H]1N,4.464466121925943,-0.850937548335787,0.0,H11C7NO
CN(C)[C]1CC=CO[C]1N(=O)=O,4.134450989169272,1.5488307669998904,0.0,H10C7N2O3
c1ccc(cc1)c1c[nH]cc1c1ccccc1,4.600309202594508,-0.2080256680623278,0.0,H13C16N
CN(C)c1ccn(C)c1OC,3.059200418659748,-0.9000978085718088,0.0,H14C8N2O
CCc1c(ccn1C)NC,3.0132039471132885,-0.8878523783445416,0.0,H7C4N
C=Cc1cc(c[nH]1)c1ccccc1,3.873444418406143,-0.0350576137992901,0.0,H11C12N
C1=CSC(=CS1)F,3.947867942386074,0.3812326945058886,0.0,H3C4S2F
CNc1c(cc[nH]1)C#N,3.72122495751828,-0.4806601309232063,0.0,H7(C2N)3
c1ccc(cc1)C1=CCC=C(C#N)O1,4.495220539528964,0.6041729610657058,0.0,H9C12NO
C=C[C@@H]1C=COC(=C1)c1ccccc1,4.337029763593455,0.3480451818973962,0.0,H12C13O
C#Cc1cc(cn1C)c1ccccc1,4.041104065546824,0.0787076854227053,0.0,H11C13N
Cn1cc(c(c1)C(Cl)(Cl)Cl)C(=N)O,5.135886607416614,2.6475782014764264,0.0,H7C7N2Cl3O
Cn1cc(cc1F)C#N,4.910903936016984,-0.0158869489645439,0.0,H5C6N2F
CN(C)[C]1[C](CC=CO1)c1ccccc1,3.340894517472043,-0.1062621888944703,0.0,H15C13NO
CCc1cc(cn1C)OC,3.584851286824778,-0.9099087723374396,0.0,H13C8NO
C[C@@H]1C=COC=C1N(C)C,3.288957588579797,-0.9792999617660824,0.0,H13C8NO
C=CC1=C(N(C)C)OC=CC1,3.358786296242761,0.0426374940467213,0.0,H13C9NO
Cc1c(cc[nH]1)C(=O)O,4.664010753578259,-0.1199477598423981,0.0,H7C6NO2
C=Cc1cc(F)n(C)c1,4.078640057190205,-0.2951350300922057,0.0,H8C7NF
CN(C)C1=C(CC=CO1)OC,3.352336539751923,-0.8742052543588215,0.0,H13C8NO2
CN(C)C1=CCC(=CO1)OC,3.591219049972642,-0.9090347671794006,0.0,H13C8NO2
C#Cc1cc(cn1C)C(=O)O,4.720088446912632,0.2899183870027628,0.0,H7C8NO2
c1c(C#N)c[nH]c1F,5.008778470069592,-0.2706333721638656,0.0,H3C5N2F
COC1=COC(=CC1)OC,3.9335714078402817,-1.01495891838058,0.0,H10C7O3
CC1=COC(=CC1)NC,3.4544801752996137,-0.7544189112835737,0.0,H11C7NO
Cn1ccc(c1c1ccccc1)[C]([NH])O,4.386223700633854,0.3137419231512468,0.0,H12C12N2O
CCC1=CCC(=CO1)NC,3.213270653653672,-0.87573053133965,0.0,H13C8NO
CCC1=COC=C[C@H]1NC,4.256296926514187,-0.7734087455850385,0.0,H13C8NO
CCc1cc(c[nH]1)[C]([NH])O,4.565077620503507,-0.424190645361159,0.0,H10C7N2O
CCc1c[nH]cc1F,4.416117318765464,-0.9036438573370104,0.0,H8C6NF
c1c(c[nH]c1C(=O)N)F,5.053578371561889,0.300071874065543,0.0,H5C5N2OF
CC[C@@H]1C=COC(=C1)C,4.282087636676442,-0.76431581132274,0.0,H12C8O
CN(C)C1=C[C@@H](C=CO1)c1ccccc1,3.6154957405065935,-0.4667136789998038,0.0,H15C13NO
C1C=C(N)OC=C1N(=O)=O,4.18719563084378,1.8860449706840885,0.0,H6C5N2O3
CN(C)C1=COC=C(C1)N(C)C,2.988929071579696,-1.2439178586868365,0.0,H16C9N2O
CC1=COC=C(C1)NC,3.215382055677401,-0.962876098376364,0.0,H11C7NO
CN(C)[C@@H]1C=COC=C1O,4.022781567878701,-0.5046956632890214,0.0,H11C7NO2
c1c(c[nH]c1C#N)C(=N)O,5.347588512569564,0.3506338307794068,0.0,H5C6N3O
C1C=C(N(=O)=O)OC=C1F,5.10916285155472,2.1822708056348348,0.0,H4C5NO3F
C#C[C]1CC=CO[C]1N(C)C,3.512160085803407,0.1403796202226659,0.0,H11C9NO
CCC1=COC=C(C)C1,4.100645593108856,-0.8284457531521183,0.0,H12C8O
C=C[C@@H]1C=COC(=C1)C#N,4.998037649774778,0.7374938981698507,0.0,H7C8NO
c1ccc(cc1)c1ccc(c2ccccc2)[nH]1,3.716216131606052,0.3370976203128522,0.0,H13C16N
C#Cc1cn(C)cc1F,4.587199490531566,-0.1139040978800038,0.0,H6C7NF
CN(C)c1cc([nH]c1)OC,2.9713189768877784,-0.7644841463865304,0.0,H12C7N2O
CCc1cc(cn1C)NC,3.0222298706190487,-0.9120974982310144,0.0,H7C4N
Cc1c(ccn1C)N,3.044164896400253,-0.5865042588888172,0.0,H5C3N
CC1=COC=C(C1)N(C)C,3.205862729915316,-0.9669222950982655,0.0,H13C8NO
C=C[C@@H]1C=COC=C1c1ccccc1,4.20073611885673,0.1776436620853929,0.0,H12C13O
CC[C@@H]1C=COC(=C1)CC,4.267203415156109,-0.7985428423329721,0.0,H14C9O
C#CC1=CCC(=CO1)N(C)C,3.355962976389128,0.3292518165122602,0.0,H11C9NO
Cn1cc(cc1OC)N(=O)=O,4.46792295817213,1.5450865921462538,0.0,H8C6N2O3
C=Cc1cc[nH]c1CC,3.93076108142086,-0.4767364126368192,0.0,H11C8N
CCc1c(ccn1C)C(=O)O,4.592033383343368,-0.0550173570576588,0.0,H11C8NO2
c1cc([nH]c1C#N)O,4.471654319184017,-0.3492101424511928,0.0,H4C5N2O
C=C[C@@H]1C=COC=C1C#C,4.540041286094128,0.3635447453303642,0.0,H8C9O
CN(C)[C@@H]1C=COC(=C1)c1ccccc1,3.975209075562452,0.2670495127909817,0.0,H15C13NO
C[C@@H]1C=COC=C1NC,3.367149146355223,-0.8349306504227569,0.0,H11C7NO
c1ccc(cc1)[C@@H]1C=COC(=C1)C(=N)O,4.937062984915974,0.6036397567200766,0.0,H11C12NO2
Cn1ccc(c2ccccc2)c1N,3.262964763143464,-0.5521404797858849,0.0,H12C11N2
c1cc([nH]c1)O,3.8375119030266434,-0.4821398179505194,0.0,H5C4NO
Cn1cccc1N,3.239942275225621,-0.6537210873124422,0.0,H8C5N2
c1c(c[nH]c1N)N(=O)=O,3.969654263395205,1.6107853573299509,0.0,H5C4N3O2
CN(C)c1c(ccn1C)C#N,3.776577222571723,-0.1905787733852775,0.0,H11C8N3
CCC1=CCC=C(NC)O1,3.435390453448781,-0.8660612708539701,0.0,H13C8NO
CN(C)C1=CCC=C(OC)O1,3.617944699744476,-1.0026419276549858,0.0,H13C8NO2
C=CC1=C(CC)OC=CC1,4.0443093889040025,-0.0185677056582789,0.0,H12C9O
C=C[C@@H]1C=COC=C1N(C)C,3.3659595163549967,-0.5201858768872625,0.0,H13C9NO
CNc1cn(C)cc1c1ccccc1,3.2866278070356203,-0.3882523339583712,0.0,H7C6N
CCc1ccn(C)c1NC,3.1399776822723653,-0.9718588552899744,0.0,H7C4N
COc1cc([nH]c1)O,3.479477447766476,-0.4569134392353589,0.0,H7C5NO2
c1ccc(cc1)C1=COC(=CC1)C(=N)O,4.369601683947257,0.6102597122495355,0.0,H11C12NO2
CCC1=CCC=C(N)O1,3.6474239864634,-0.8895744725417898,0.0,H11C7NO
CC1=C[C@@H](C=CO1)NC,4.288283671504905,-0.7471845172607572,0.0,H11C7NO
COc1cc[nH]c1F,3.9028610563505937,-0.8287561452456429,0.0,H6C5NOF
CNc1c(cc[nH]1)C(=O)N,3.466538829306592,-0.551492399865674,0.0,H9C6N3O
CN(C)c1ccc(C#N)n1C,3.755684890763951,-0.110163612891847,0.0,H11C8N3
c1ccc(cc1)c1c[nH]cc1N(=O)=O,4.697303617778379,1.614440980899963,0.0,H4C5NO
C[C@@H]1C=COC(=C1)N(C)C,3.520716999340584,-0.8434467278388182,0.0,H13C8NO
CN(C)C1=COC=C(C1)OC,3.268857053618922,-0.9837324594576784,0.0,H13C8NO2
C=CC1=CCC(=CO1)C#N,4.720192552227308,0.5636951731372393,0.0,H7C8NO
CCC1=COC=C(CC)C1,4.091654312414539,-0.8048997835161571,0.0,H14C9O
c1c(C#N)c[nH]c1O,4.42209204884748,-0.4898813940711988,0.0,H4C5N2O
C=Cc1cc(cn1C)NC,3.1223992522369373,-0.072160711206743,0.0,H6C4N
C#Cc1c(ccn1C)OC,3.8803474485208422,-0.0140674488997318,0.0,H9C8NO
C=Cc1cc(C)cn1C,3.726950793237484,-0.0619636369505314,0.0,H11C8N
Cn1c(ccc1OC)N,2.8727823136774533,-0.6518442174841765,0.0,H10C6N2O
CNC1=CCC(=CO1)N(C)C,3.3053209964378767,-0.9887294464228034,0.0,H14C8N2O
c1ccc(cc1)C1=COC(=CC1)c1ccccc1,4.100266356211796,0.3430419771371817,0.0,H14C17O
CC[C@@H]1C=COC(=C1)c1ccccc1,4.200674444254764,0.2061833397143346,0.0,H14C13O
C=CC1=C(CC=CO1)c1ccccc1,4.086348552431081,0.6122353022616154,0.0,H12C13O
CC[C@@H]1C=COC=C1N,3.463779883422467,-0.7515894498214037,0.0,H11C7NO
CC1=COC(=CC1)OC,3.953279151919196,-1.0214407652551016,0.0,H10C7O2
CC[C@@H]1C=COC(=C1)N,3.733766842165642,-0.7304481202430906,0.0,H11C7NO
CNc1cccn1C,3.1387406215959346,-0.7332114743698184,0.0,H5C3N
Cc1ccc(n1C)N(=O)=O,5.056956276895653,1.6236037749455137,0.0,H4C3NO
C=CC1=CCC=C(c2ccccc2)O1,4.187058684113799,0.2446832382771391,0.0,H12C13O
CCc1cc(n(C)c1)OC,3.5686120254646085,-0.9356906415236153,0.0,H13C8NO
COc1c[nH]cc1C(=O)O,4.538413941936232,-0.1316122351858211,0.0,H7C6NO3
CN(C)[C]1CC=CO[C]1c1ccccc1,3.1608854743550183,-0.0046341927431057,0.0,H15C13NO
C#CC1=COC=C(C#C)C1,4.492655599931458,0.4342997557119816,0.0,H6C9O
CCC1=C(c2ccccc2)OC=CC1,4.102731362010308,0.0375629927308183,0.0,H14C13O
COC1=C(OC)OC=CC1,3.533178131484965,-0.8581671205014572,0.0,H10C7O3
C=Cc1cc(c[nH]1)N(C)C,3.174189615173964,-0.1824223270654328,0.0,H6C4N
C=Cc1cc[nH]c1C=C,3.947553112114838,0.3727184348168522,0.0,H9C8N
Cn1cc(cc1C#N)F,4.985645713457052,0.2824179663308315,0.0,H5C6N2F
Cn1cc(cc1O)C(=O)O,4.316068529836775,-0.0001581133023136,0.0,H7C6NO3
C1C(=COC=C1F)F,4.67244267162423,-0.2715593456236091,0.0,H4C5OF2
C1C=C(F)OC(=C1)N(=O)=O,5.1965657185497545,2.218740136311317,0.0,H4C5NO3F
CCC1=COC=C(C1)NC,3.211697914580873,-0.8526458871787326,0.0,H13C8NO
C=CC1=COC(=CC1)C#N,4.502432846074589,0.6503537135464286,0.0,H7C8NO
CCC1=CCC=C(CC)O1,4.133072098549382,-0.7825014104550063,0.0,H14C9O
C=C[C@@H]1C=COC(=C1)CC,4.412698477775484,-0.3618305754775064,0.0,H12C9O
C=Cc1cn(C)cc1C,3.891081833320277,-0.23792542754054,0.0,H11C8N
CCc1ccn(C)c1N(=O)=O,5.179397041487027,1.5329009643788596,0.0,H10C7(NO)2
CN[C@@H]1C=COC(=C1)N(C)C,3.490518175607213,-0.8759692078296211,0.0,H14C8N2O
CC1=COC(=CC1)N(C)C,3.4640362908518,-0.9841349185448052,0.0,H13C8NO
C#Cc1cn(C)cc1C,4.314553925015934,-0.251037918433576,0.0,H9C8N
c1ccc(cc1)c1ccc(C#N)[nH]1,4.451963900215196,0.5883614387326817,0.0,H8C11N2
CN(C)c1c[nH]cc1OC,3.1755022584107797,-0.7239050695228797,0.0,H12C7N2O
CCc1ccc(C(=O)O)[nH]1,4.652781897114982,0.2721037661118317,0.0,H9C7NO2
Cn1cc(cc1N(=O)=O)C(Cl)(Cl)Cl,5.578554510133108,2.350079091099906,0.0,H5C6N2Cl3O2
c1ccc(cc1)C1=C[C@@H](C=CO1)C#N,4.7161931482001815,0.5249003331078712,0.0,H9C12NO
c1ccc(cc1)[C@@H]1C=COC(=C1)O,4.403002286182163,-0.4282574655921052,0.0,H10C11O2
CC[C@@H]1C=COC=C1NC,3.3493831712545217,-0.8851101320891757,0.0,H13C8NO
CCC1=COC(=CC1)NC,3.450878264282073,-0.8699801482329348,0.0,H13C8NO
C=CC1=COC(=CC1)CC,4.047597057416715,0.1620322190497973,0.0,H12C9O
CCC1=C(CC)OC=CC1,4.061136263773369,-0.8800917515331093,0.0,H14C9O
C=Cc1ccc([nH]1)OC,3.4859195932327567,-0.1995304315863904,0.0,H9C7NO
CCc1cc([nH]c1)O,3.696575484631103,-0.4553218290660878,0.0,H9C6NO
Cc1cc[nH]c1N,3.1545409334026773,-0.6205296889169403,0.0,H8C5N2
C#CC1=COC(=CC1)C(=O)O,4.7687363957044,0.9462958915897616,0.0,H6C8O3
c1ccc(cc1)C1=C(CC=CO1)O,3.8255320831191058,0.0533442620122515,0.0,H10C11O2
Cn1ccc(c1c1ccccc1)OC,3.594149302401638,-0.5264202373677107,0.0,H13C12NO
CCC1=C(CC=CO1)NC,3.124275185993247,-0.9778121875173382,0.0,H13C8NO
c1ccc(cc1)C1=CCC=C(O)O1,4.158920148539982,0.2078948323574878,0.0,H10C11O2
Cn1cc(cc1c1ccccc1)N(=O)=O,4.592474490798486,1.6106469792444842,0.0,H10C11(NO)2
C#Cc1ccc(n1C)OC,3.748096843988242,-0.0278107460766476,0.0,H9C8NO
CCc1c(cc[nH]1)F,4.227874913629057,-0.894474606028234,0.0,H8C6NF
C#CC1=C[C@@H](C=CO1)C(Cl)(Cl)Cl,5.063520430050266,2.184434099764621,0.0,H5C8Cl3O
C#CC1=CCC(=CO1)C(=O)O,5.00543028887987,0.8384010184996442,0.0,H6C8O3
CCC1=COC=C(C1)c1ccccc1,4.027051450338695,0.1019543271155272,0.0,H14C13O
CN(C)C1=C(N(C)C)OC=CC1,2.689736085556069,-0.9096917887622112,0.0,H16C9N2O
CN(C)c1cc(n(C)c1)OC,2.787259606364023,-0.8274606384715297,0.0,H14C8N2O
CCc1cc[nH]c1[C]([NH])O,4.596188899609478,-0.2893758413796603,0.0,H10C7N2O
CN(C)c1ccc(C#N)[nH]1,3.630464630250208,-0.106132529370734,0.0,H9C7N3
c1ccc(cc1)C1=COC(=CC1)C#N,4.40391296412381,0.6753441205815762,0.0,H9C12NO
CCC1=COC=C(C1)N(C)C,3.208048884332675,-0.9009306592346548,0.0,H15C9NO
c1c(c[nH]c1N(=O)=O)N,4.136598873493858,1.749556092434068,0.0,H5C4N3O2
c1c[nH]c(c1N)F,3.5125869126837643,-0.6391973513185802,0.0,H5C4N2F
c1c(c(c[nH]1)N(=O)=O)N(=O)=O,5.92388066135536,2.21933521390165,0.0,H3C4N3O4
CNc1c[nH]cc1C(=O)O,4.012136161581656,-0.2235331225314438,0.0,H4C3NO
C=Cc1ccc(N)[nH]1,3.0867350166132383,-0.3284708801151281,0.0,H4C3N
C#C[C@@H]1C=COC(=C1)C(=O)O,5.290183203027118,0.9756718213080604,0.0,H6C8O3
C#CC1=CCC=C(C(=O)O)O1,4.874223545686254,0.6992172690130247,0.0,H6C8O3
C=CC1=C[C@@H](C=CO1)c1ccccc1,4.468024802217405,0.2115799802755646,0.0,H12C13O
C#CC1=C(C#C)OC=CC1,4.483533492344213,0.8993371602060507,0.0,H6C9O
c1ccc(cc1)[C@@H]1C=COC=C1[C]([NH])O,4.904389783788792,0.467496103852318,0.0,H11C12NO2
C#Cc1c(ccn1C)C(=O)O,4.706268383704446,0.7373972787077947,0.0,H7C8NO2
c1c(c[nH]c1C(=O)N)O,4.31869684747071,0.1615587001539098,0.0,H6C5(NO)2
CC[C@@H]1C=COC(=C1)NC,3.4986457125556627,-0.7456323744849214,0.0,H13C8NO
CC[C@@H]1C=COC(=C1)C=C,4.303168690319216,0.1181334105000133,0.0,H12C9O
C=CC1=C(OC)OC=CC1,3.725991306234937,0.0477037992910482,0.0,H5C4O
Cc1ccc(C(=O)O)[nH]1,4.672640310627321,0.266701637015649,0.0,H7C6NO2
c1cc(C(=O)N)[nH]c1C(=O)N,5.118995845657627,0.7647369125421393,0.0,H7C6N3O2
CNc1ccc(n1C)OC,2.7876425657737856,-0.7374527331779972,0.0,H12C7N2O
C#C[C@@H]1C=COC(=C1)C#N,5.301490534398544,0.8101769466626139,0.0,H5C8NO
CCC1=C(CC=CO1)OC,3.7103226186151006,-0.7859006238726578,0.0,H6C4O
C#CC1=C(C(=O)O)OC=CC1,4.813483916435507,1.3261344858743542,0.0,H6C8O3
CCC1=C[C@@H](C=CO1)c1ccccc1,4.488210467996032,-0.4067033746963715,0.0,H14C13O
CN(C)C1=CCC=C(N(C)C)O1,3.472470652480842,-1.0163413981794291,0.0,H16C9N2O
CCc1cc(C#N)[nH]c1,4.809376064156458,-0.0849663694047193,0.0,H8C7N2
CCc1cc[nH]c1C#N,4.88750770246188,-0.1167218013037199,0.0,H8C7N2
Cn1cc(cc1N)[C]([NH])O,3.6177922234779545,-0.4359148388070024,0.0,H9C6N3O
C#CC1=COC=C[C@H]1N(C)C,4.152518776612487,0.2835096108570725,0.0,H11C9NO
C#C[C@@H]1C=COC=C1N(C)C,3.471887009114289,-0.0366569411165982,0.0,H11C9NO
COc1cc(c2ccccc2)[nH]c1,3.668538078032361,-0.0204723624814504,0.0,H11C11NO
C=Cc1ccn(C)c1c1ccccc1,3.902271078175181,0.0640395005171741,0.0,H13C13N
C=Cc1ccc(F)[nH]1,3.9461831740405615,0.0311597105661349,0.0,H6C6NF
Cc1c[nH]cc1N,3.342167716354743,-0.7251864889643911,0.0,H8C5N2
Cc1c[nH]cc1O,3.945793866214081,-0.5115401045735779,0.0,H7C5NO
CN(C)C1=CCC(=CO1)c1ccccc1,3.5455117510842684,0.1173899982146395,0.0,H15C13NO
c1c[nH]cc1C#N,5.039059755181006,-0.4957906726143846,0.0,H4C5N2
CNc1ccc(C(=O)O)[nH]1,3.69608123610451,0.0927476302182186,0.0,H4C3NO
CCc1ccn(C)c1C(=O)O,4.6757722864855165,0.3377751756939688,0.0,H11C8NO2
Cn1cc(cc1C(Cl)(Cl)Cl)C(=O)O,5.271931638054957,2.6651075790447067,0.0,H6C7NCl3O2
CN(C)c1cn(C)cc1C#N,3.589762492625232,-0.2409394719838018,0.0,H11C8N3
c1c(c[nH]c1C#N)C(=O)O,5.48562423553958,0.3872588922055002,0.0,H2C3NO
C=CC1=COC=C[C@H]1C#N,4.593072414663402,0.5371747298500851,0.0,H7C8NO
C=C[C]1[C](CC=CO1)N(C)C,3.16627338006183,0.091251178260427,0.0,H13C9NO
C=CC1=C[C@@H](C=CO1)N(C)C,4.050795826340254,0.1945802314836329,0.0,H13C9NO
CCc1cc[nH]c1C,3.9436263597614016,-0.9717682534414052,0.0,H11C7N
C=Cc1cc(C)n(C)c1,3.8717138995631104,-0.4968196275553054,0.0,H11C8N
c1c(c(c[nH]1)C(=N)O)C(=N)O,5.1446822763533415,0.4096537767632981,0.0,H7C6N3O2
CNC1=COC=C[C@H]1N(C)C,3.479473219118154,-0.992899931141801,0.0,H14C8N2O
COc1ccc[nH]1,3.7730111516681055,-0.8078280195790284,0.0,H7C5NO
CC1=CCC(=CO1)NC,3.22322807725468,-0.8200065478980831,0.0,H11C7NO
CC1=C(NC)OC=CC1,3.300222799450785,-0.7908312259445665,0.0,H11C7NO
Cn1cc(cc1N)c1ccccc1,3.2554075740787085,-0.2812846942146279,0.0,H12C11N2
CN(C)c1cc(cn1C)O,3.147292490144173,-0.5047996788056479,0.0,H12C7N2O
C#Cc1cc[nH]c1OC,3.861415264256357,-1.068939686149315,0.0,H7C7NO
C#Cc1ccn(C)c1OC,3.831447843410933,-1.033078129896603,0.0,H9C8NO
CCC1=COC(=CC1)O,4.132601888555291,-0.4707272873660257,0.0,H10C7O2
CCC1=CCC(=CO1)O,3.925206154962871,-0.8975232470223999,0.0,H10C7O2
CCC1=COC=C(C1)O,3.90677131860648,-0.4710713045682495,0.0,H10C7O2
C#C[C]1[C](CC=CO1)N(C)C,3.363421341871436,0.2698988358402858,0.0,H11C9NO
c1cc(C#N)[nH]c1,5.030582889370271,-0.0557759560200792,0.0,H4C5N2
CN(C)C1=CCC=C(N(=O)=O)O1,3.8160959588836714,2.0471372502230225,0.0,H10C7N2O3
CNC1=CCC(=CO1)C(=N)O,3.7430830431090727,0.4136480704943097,0.0,H10C7(NO)2
C=CC1=C(c2ccccc2)OC=CC1,4.046464174037828,0.5811682367362665,0.0,H12C13O
CCC1=CCC=C(O)O1,4.127304093349812,-0.4646334394496079,0.0,H10C7O2
C#C[C@@H]1C=COC(=C1)N(C)C,3.745261415069399,-0.1519972733280155,0.0,H11C9NO
CN(C)[C@@H]1C=COC(=C1)N(=O)=O,4.325146486951416,2.140491614228813,0.0,H10C7N2O3
CN(C)[C]1[C](CC=CO1)N(=O)=O,4.582847481391218,1.3347609598691634,0.0,H10C7N2O3
CCC1=C[C@@H](C=CO1)C#N,4.887974306946125,-0.219966605362424,0.0,H9C8NO
C#CC1=CCC=C(N(C)C)O1,3.5831766356765,0.3748161168583466,0.0,H11C9NO
CNC1=C[C@@H](C=CO1)[C]([NH])O,3.957324325494119,-0.1945566613725531,0.0,H10C7(NO)2
CCC1=C[C@@H](C=CO1)O,4.836227201949077,-0.5980302065185241,0.0,H10C7O2
CN(C)C1=CCC(=CO1)N(=O)=O,3.920684790334781,1.8532951368557409,0.0,H10C7N2O3
CNC1=C(CC=CO1)C(=O)N,3.934330504767422,0.0612123057631834,0.0,H10C7(NO)2
CC1=CCC=C(C)O1,4.160359423940099,-1.1373584631677658,0.0,H10C7O
CN(C)[C@@H]1C=COC=C1N(=O)=O,4.285007527015841,1.881653178499255,0.0,H10C7N2O3
C[C@@H]1C=COC=C1OC,3.987431389717676,-0.8251266935862076,0.0,H10C7O2
COC1=COC=C(C1)OC,3.730816105007398,-1.041965283512036,0.0,H10C7O3
COC1=CCC=C(OC)O1,4.02237914688485,-1.2070515030340174,0.0,H10C7O3
COC1=C[C@@H](C=CO1)N,4.178464055595759,-0.7426666356881468,0.0,H9C6NO2
CN(C)C1=COC=C(C1)N(=O)=O,3.788880125962896,1.7765622861312296,0.0,H10C7N2O3
CO[C@@H]1C=COC(=C1)N,4.110353537300034,-0.713109736665865,0.0,H9C6NO2
CNC1=COC=C[C@H]1[C]([NH])O,3.691638640267775,-0.1649051891839916,0.0,H10C7(NO)2
CN(C)C1=COC(=CC1)N(=O)=O,3.6217375965803513,2.0218312727716694,0.0,H10C7N2O3
C[C@@H]1C=COC(=C1)OC,4.0432529042042,-0.8577945694454683,0.0,H10C7O2
CCC1=C(CC=CO1)[C]([NH])O,4.557489622709545,0.2882784966110194,0.0,H11C8NO2
Cn1cc(cc1C(=O)O)C(=N)O,5.132630796413286,0.5535725099813136,0.0,H8C7N2O3
CC1=COC=C(C)C1,4.111669093421005,-1.2193603004110627,0.0,H10C7O
CC1=CCC(=CO1)OC,3.821453703490624,-0.9928907881152552,0.0,H10C7O2
CC1=CCC=C(OC)O1,3.9481491421025567,-0.8737402526279765,0.0,H10C7O2
CC1=C[C@@H](C=CO1)OC,4.809001970213648,-0.7308080805927601,0.0,H10C7O2
c1ccc(cc1)C1=COC=C(C1)C(=N)O,4.423862514003849,0.6275350007941598,0.0,H11C12NO2
CC1=C(OC)OC=CC1,3.808709249140157,-0.8721614508580386,0.0,H10C7O2
CC1=COC=C[C@H]1OC,4.730442753990792,-0.8535037505429499,0.0,H10C7O2
CCC1=C(CC=CO1)O,3.823436708600275,-0.4884183304806355,0.0,H10C7O2
c1ccc(cc1)C1=C(C(=N)O)OC=CC1,4.524259837218414,0.9488735008140794,0.0,H11C12NO2
C(#N)C1=CSC(=CS1)C#N,4.804956064040743,1.5082181188059622,0.0,HC3SN
c1c[nH]c(C#N)c1O,4.689092000376695,-0.3167642543379769,0.0,H4C5N2O
C=Cc1c[nH]cc1C(Cl)(Cl)Cl,4.423962309033959,2.4660227463115008,0.0,H6C7NCl3
C=Cc1c(ccn1C)N,3.330890535194704,-0.3171988663983938,0.0,H10C7N2
C#Cc1cc(c[nH]1)N(=O)=O,5.043324334142744,1.784230282671706,0.0,H2C3NO
C1=CSC(=C(C#N)S1)C#N,4.755777632608078,2.011968944426917,0.0,HC3SN
Cn1cc(C#N)c(C#N)c1,5.469300183507221,0.3537107117495908,0.0,H5C7N3
Cn1cc(cc1OC)C(Cl)(Cl)Cl,4.11600436384615,2.6186183474361315,0.0,H8C7NCl3O
c1c[nH]c(c1C(=N)O)C(=N)O,5.100938703306019,0.8614704787083611,0.0,H7C6N3O2
Cn1cc(cc1c1ccccc1)C#N,4.426808834752228,0.0133442352340353,0.0,H5C6N
C=Cc1cc[nH]c1O,3.7551239906712,-0.3660926210617616,0.0,H7C6NO
CCC1=COC(=CC1)C,4.129368582947427,-0.812669074432415,0.0,H12C8O
Cn1cc(cc1C#N)C(=O)O,5.403628300451237,0.380232937380788,0.0,H6C7(NO)2
COc1cc[nH]c1N,2.9984682616501237,-0.6312572980845288,0.0,H8C5N2O
Cn1ccc(c1OC)N(=O)=O,4.577958480081724,1.4773062948766893,0.0,H8C6N2O3
CNc1ccn(C)c1O,2.939201122013037,-0.3636181756395671,0.0,H10C6N2O
Cn1ccc(c1O)N,3.20708030056594,-0.612879352566233,0.0,H8C5N2O
Cn1c(ccc1OC)C(=O)N,4.071037218307174,0.0049484321403725,0.0,H10C7(NO)2
Cn1cc(cc1OC)C(=N)O,4.131371982986456,-0.0754383931456685,0.0,H10C7(NO)2
Cn1cc(cc1OC)N,3.0361743660483627,-0.7543562353024753,0.0,H10C6N2O
CC1=CSC=CS1,3.801162494638993,-0.1668225690649705,0.0,H6C5S2
C#Cc1cc(c2ccccc2)n(C)c1,4.113188400220315,-0.0814022822090918,0.0,H11C13N
CN(C)c1cc(cn1C)OC,3.091452096399371,-0.9535349173806024,0.0,H14C8N2O
C=Cc1cc([nH]c1)OC,3.738547212909544,-0.5185467744871857,0.0,H9C7NO
Cn1ccc(c1C(=O)O)F,5.183342920721406,0.3899419836321613,0.0,H6C6NO2F
Cc1ccn(C)c1N(=O)=O,5.192096616102935,1.5401989350790246,0.0,H4C3NO
CCC1=C(C)OC=CC1,4.070358645308806,-0.7957894938321259,0.0,H12C8O
CCC1=C(OC)OC=CC1,3.783661932214818,-0.7858789445621368,0.0,H6C4O
C=Cc1cc(C#C)[nH]c1,4.18793900231285,0.1659635837346287,0.0,H7C8N
CCc1ccc(n1C)O,3.51556689119534,-0.4456904549882892,0.0,H11C7NO
c1c(c[nH]c1F)F,4.544689349647888,-0.7263485728803061,0.0,H3C4NF2