smiles,IE,EA,charge,formula_pretty
c1ccc(cc1)C1=CS[C](C2=[S]C=CS2)S1,3.205513436428737,0.5582840289076558,0.0,H2C3S
C=CC1=CS[C](C2=[S]C(=CS2)C(=O)C)S1,3.3980483584542527,1.2391290112078424,0.0,H8C10S4O
C=CC1=C(CC)S[C](C2=[S]C=CS2)S1,3.190068094410526,0.5196837502677227,0.0,H5C5S2
CC(C)(C)C1=C(C(=O)O)S[C](C2=[S]C=CS2)S1,3.2822340229700786,1.115345729458204,0.0,H12C11(S2O)2
COCCOC1=C(C(F)(F)F)S[C](C2=[S]C=CS2)S1,3.386414150323253,0.8640984181198292,0.0,H9C10S4O2F3
C=CC1=C(OCCOC)S[C](C2=[S]C=CS2)S1,3.272749688339536,0.4905221646346036,0.0,H12C11(S2O)2
C1=C[S]=C([C]2SC(=C(F)S2)C(F)(F)F)S1,3.54369520345208,1.20065515122551,0.0,H2C7(SF)4
CC1=C(c2ccccc2)S[C](C2=[S]C=CS2)S1,3.1598611480672845,0.4949446185943089,0.0,H10C13S4
COCCOC1=C(N)S[C](C2=[S]C=CS2)S1,3.0577246201370145,0.3508635873746244,0.0,H11C9S4NO2
CC1=CSC(=[S]1)[C]1SC=C(C(C)(C)C)S1,3.111900953402801,0.2093272096695728,0.0,H14C11S4
c1ccc(cc1)C1=C(C(F)(F)F)S[C](C2=[S]C=CS2)S1,3.3817177375909524,1.1107476858611336,0.0,H7C13S4F3
C=CC1=C(N(C)C)S[C](C2=[S]C=CS2)S1,3.1478101187036374,0.5746027338987916,0.0,H11C10S4N
C(#N)C1=CS[C](C2=[S]C(=CS2)C(=O)O)S1,3.65621895333752,1.1456380787145464,0.0,H3C8S4NO2
CCC1=C(C(=O)O)S[C](C2=[S]C=CS2)S1,3.32746696214017,1.003309637491475,0.0,H8C9(S2O)2
CC1=C(F)S[C](C2=[S]C=CS2)S1,3.2895065074932064,0.9569631894497436,0.0,H5C7S4F
COCCOCCOC1=C(c2ccccc2)S[C](C2=[S]C=CS2)S1,3.2260172386537307,0.5274525813234505,0.0,H18C17S4O3
c1ccc(cc1)C1=C(F)S[C](C2=[S]C=CS2)S1,3.3364930244293647,0.8898611250348041,0.0,H7C12S4F
C1=C[S]=C([C]2SC(=C(N(=O)=O)S2)N(=O)=O)S1,3.80557358613587,3.261055100885278,0.0,HC3S2NO2
C1=C[S]=C([C]2SC=C(C(Cl)(Cl)Cl)S2)S1,3.415555038978346,2.8465370972204256,0.0,H3C7S4Cl3
C1=C[S]=C([C]2SC(=C(C(F)(F)F)S2)C#N)S1,3.646300080124638,1.711094053063425,0.0,H2C8S4NF3
CC(=O)C1=CSC(=[S]1)[C]1SC=C(O)S1,3.3423605797594065,1.2382124719311831,0.0,H3C4S2O
CCC1=CSC(=[S]1)[C]1SC=C(c2ccccc2)S1,3.168574350203562,0.5490423708193704,0.0,H6C7S2
C=CC1=C(C#N)S[C](C2=[S]C=CS2)S1,3.478670804391732,1.4765256927872543,0.0,H5C9S4N
CC(=O)C1=CSC(=[S]1)C1=[S]C(=CS1)C(=O)O,3.5509517339392915,1.169278635113733,0.0,H6C9S4O3
CN(C)c1c(ccs1)Cl,3.725513417187904,1.159827158223925,0.0,H8C6SNCl
CC(=O)n1c2ccccc2n(c2ccccc2)s1,3.626661208048609,2.022994937667681,0.0,H12C14SN2O
COCCOCCOc1ccsc1C(F)(F)F,4.866206832544412,0.3317325477633859,0.0,H13C10S(OF)3
CC(C)(C)c1cscc1Cl,4.988960838259663,1.2451826651864395,0.0,H11C8SCl
CC(C)(C)c1cc(N(=O)=O)sc1,5.54182580870256,2.1258511985448423,0.0,H11C8SNO2
C=CC1=C(N(=O)=O)S[C](C2=[S]C=CS2)S1,3.566672825255955,2.454308036025032,0.0,H5C8S4NO2
CN(C)C1=C(O)S[C](C2=[S]C=CS2)S1,3.069275985924469,0.8544311195597403,0.0,H9C8S4NO
c1csc(c1C(Cl)(Cl)Cl)C(F)(F)F,5.810298301557486,3.0932232690480306,0.0,H2C6S(ClF)3
c1ccc(cc1)c1ccsc1C(F)(F)F,4.997594493344513,0.7197668462300499,0.0,H7C11SF3
C1=C[S]=C([C]2SC(=C(C(Cl)(Cl)Cl)S2)C(=O)O)S1,3.485737878314103,2.932493379843072,0.0,H3C8S4Cl3O2
C=CC1=C(C=C)S[C](C2=[S]C=CS2)S1,3.283988365388359,1.0318277092825157,0.0,H4C5S2
COCCOC1=C(F)S[C](C2=[S]C=CS2)S1,3.333023845103162,1.0625465643257486,0.0,H9C9S4O2F
C1=C[S]=C([C]2SC(=C(C(Cl)(Cl)Cl)S2)C#N)S1,3.594383173354436,3.076029418729013,0.0,H2C8S4NCl3
CC(=O)C1=C(C(=O)C)S[C](C2=[S]C=CS2)S1,3.430204045319988,2.115453663458174,0.0,H4C5S2O
C#CC1=C(C(Cl)(Cl)Cl)S[C](C2=[S]C=CS2)S1,3.437786766831414,3.053935747864307,0.0,H3C9S4Cl3
c1ccc(cc1)C1=C(C(=O)O)S[C](C2=[S]C=CS2)S1,3.3629744221121656,1.4509655528469012,0.0,H8C13(S2O)2
Cc1ccc(OCCOC)s1,3.981783745913708,-0.1860988707434443,0.0,H12C8SO2
C=Cc1cccc2c1[nH]sn2C(=O)C,3.804449130120338,2.5111722063862545,0.0,H10C10SN2O
C1=C[S]=C([C]2SC(=C(C(F)(F)F)S2)C(=O)O)S1,3.5221116235785304,1.7343281149456744,0.0,H3C8S4O2F3
C#CC1=C(C(F)(F)F)S[C](C2=[S]C=CS2)S1,3.4768278372226638,1.293734002677957,0.0,H3C9S4F3
COC1=C(C(Cl)(Cl)Cl)S[C](C2=[S]C=CS2)S1,3.332868269478786,2.638697467010934,0.0,H5C8S4Cl3O
CN(C)c1cc(Cl)sc1,3.6748513661274047,1.233787647853751,0.0,H8C6SNCl
C#CC1=C(C#C)S[C](C2=[S]C=CS2)S1,3.384344566767686,1.2080894672777505,0.0,H2C5S2
C#CC1=CS[C](C2=[S]C(=CS2)C(=O)C)S1,3.4619464266375872,1.2545460289053154,0.0,H6C10S4O
CC1=C(C(F)(F)F)S[C](C2=[S]C=CS2)S1,3.364212684283848,0.6318243720466854,0.0,H5C8S4F3
Cc1cc(C#N)sc1,5.265539332963817,0.7833637252166228,0.0,H5C6SN
CCC1=C(N(C)C)S[C](C2=[S]C=CS2)S1,3.11874263001082,0.186976769460307,0.0,H13C10S4N
COCCOCCOCCOn1c2cccc(c2[nH]s1)N,3.909977238684951,1.7546911417899538,0.0,H21C13SN3O4
CNC1=C(O)S[C](C2=[S]C=CS2)S1,3.054937017952034,0.7896036873731647,0.0,H7C7S4NO
C(#N)c1cscc1C#N,5.97446155991347,0.8781347383497633,0.0,H2C6SN2
C1=C(C(=O)O)[S]=C([C]2SC=C(F)S2)S1,3.515107655564498,1.1583741519512842,0.0,H3C7S4O2F
CC(=O)C1=C(c2ccccc2)S[C](C2=[S]C=CS2)S1,3.351973246005946,1.495279405762267,0.0,H10C14S4O
CNC1=C(OCCOC)S[C](C2=[S]C=CS2)S1,2.9388475753890817,0.6589975184775541,0.0,H13C10S4NO2
C#CC1=C(C(=O)O)S[C](C2=[S]C=CS2)S1,3.4334352474921617,1.6272313979949105,0.0,H4C9(S2O)2
COCCOCCOc1ccsc1C(Cl)(Cl)Cl,4.783191338604956,2.898132882424397,0.0,H13C10S(ClO)3
C#CC1=C(F)S[C](C2=[S]C=CS2)S1,3.428911812073784,1.2286841201508651,0.0,H3C8S4F
CC(=O)C1=CSC(=[S]1)[C]1SC=C(C(F)(F)F)S1,3.596179584566562,1.2720129862660543,0.0,H5C9S4OF3
CC(=O)n1c2ccc(cc2[nH]s1)N,3.523302287610568,2.7607501619218966,0.0,H9C8SN3O
C1=C[S]=C([C]2SC(=C(N)S2)C(F)(F)F)S1,3.358271764359961,0.6549013861382265,0.0,H4C7S4NF3
CCC1=C(CC)S[C](C2=[S]C=CS2)S1,3.1072523701092,0.2518998687097338,0.0,H6C5S2
CCC1=C(C(=O)C)S[C](C2=[S]C=CS2)S1,3.3100413089428917,1.094132455685758,0.0,H10C10S4O
C1=C[S]=C([C]2SC(=C(N)S2)Cl)S1,3.253443657756725,0.5686325726215729,0.0,H4C6S4NCl
CC(=O)C1=C(N(=O)=O)S[C](C2=[S]C=CS2)S1,3.656318386472413,2.73376312503533,0.0,H5C8S4NO3
Cn1c2=C[CH]C=Cc2ns1.[Cl],4.5250266240778725,3.312771998529206,0.0,H7C7SN2Cl
C#Cc1ccc2c(c1)[nH]sn2C(=O)C,3.6592677875501978,2.034369015845732,0.0,H8C10SN2O
CC1=C(Cl)S[C](C2=[S]C=CS2)S1,3.288623990608903,1.487581400500494,0.0,H5C7S4Cl
CC(=O)c1ccc2c(c1)[nH]sn2OC,3.9843534856023326,3.972041009246459,0.0,H10C9S(NO)2
c1cc(c2c(c1)n(N)s[nH]2)C(=O)O,3.442061833056505,0.9048143219712076,0.0,H7C7SN3O2
c1cc2c(cc1C(Cl)(Cl)Cl)n(F)s[nH]2,4.808385733043542,5.023359431602875,0.0,H4C7SN2Cl3F
c1cnc(c(F)n1)F,6.284351335487008,1.1246645290826565,0.0,HC2NF
CN(C)n1c2ccc(cc2[nH]s1)C#N,3.6120693674070936,0.7335076889408811,0.0,H10C9SN4
CCC1=CS[C](C2=[S]C=CS2)S1,3.155728615065164,0.2367333943926497,0.0,H2C2S
COCCOn1c2ccccc2n(N(=O)=O)s1,4.517620700376574,3.6297250112344046,0.0,H11C9SN3O4
C#CC1=C(OC)S[C](C2=[S]C=CS2)S1,3.267341526474047,1.0278545261331602,0.0,H6C9S4O
COCCOCCOn1c2cc(ccc2[nH]s1)N(=O)=O,4.121351845309254,1.9762484850085456,0.0,H15C11SN3O5
CC(C)(C)C1=C(O)S[C](C2=[S]C=CS2)S1,3.140293031044712,0.5428702793011326,0.0,H12C10S4O
CC(=O)n1c2cccc(c2[nH]s1)N(=O)=O,3.911247795332747,2.0682078111582087,0.0,H7C8S(NO)3
COCCOc1cc(cs1)C(F)(F)F,4.565542390938935,0.2379843017057283,0.0,H9C8SO2F3
C1=Cc2c(=C([CH]1)C(Cl)(Cl)Cl)[nH]sn2.[Cl],4.538500822434434,3.8437273014802487,0.0,H4C7S(NCl2)2
CC(=O)n1c2cccc(c2[nH]s1)N(C)C,3.666819667670643,2.2741959951032187,0.0,H13C10SN3O
CC(=O)c1c(ccc2c1[nH]s[nH]2)N(C)C,3.291798369978642,0.814987807761645,0.0,H13C10SN3O
CC(=O)C1=C(C(Cl)(Cl)Cl)S[C](C2=[S]C=CS2)S1,3.497399686960853,2.923609565049992,0.0,H5C9S4Cl3O
CC(=O)C1=CSC(=[S]1)[C]1SC=C(C(Cl)(Cl)Cl)S1,3.586636960413307,2.826272191895987,0.0,H5C9S4Cl3O
CC(=O)C1=C(C)S[C](C2=[S]C=CS2)S1,3.308789451942721,1.1017511588157505,0.0,H8C9S4O
C=CC1=C(C(=O)C)S[C](C2=[S]C=CS2)S1,3.3702567054438988,1.6298122698659427,0.0,H8C10S4O
C=Cn1c2ccccc2n(C(F)(F)F)s1,3.885689230928256,2.8146813995314006,0.0,H7C9SN2F3
c1cc2c3c4c1c(=O)n(c(=O)c4ccc3c1c3c(cccc23)c(cc1)Nc1cc(c(c(c1)OC)OC)OC)C,3.66545168881712,1.9035463314081429,0.0,H24C32N2O5
CCn1c2cccc(c2[nH]s1)O,3.242928645691427,1.707539726599498,0.0,H10C8SN2O
c1cc2c3c4c1c(=O)n1c(c4ccc3c3c4c(cccc24)ccc3)nc2c1cc(c(c2)OC)OC,3.915427836692834,2.0102632182475646,0.0,H18C30N2O3
CCn1c2cccc(c2[nH]s1)C(=O)O,3.0748262510729547,2.092754718896322,0.0,H10C9S(NO)2
c1ccc2c(c1)[nH]sn2O,3.907716454321053,1.8606638190627565,0.0,H6C6SN2O
CNc1cc(C(=O)O)sc1,3.9725908615160734,0.9416210928553485,0.0,H7C6SNO2
COc1cccc2c1[nH]sn2.[Cl],4.422971504443558,3.689974343049107,0.0,H7C7SN2ClO
COCCOCCOCCOC1=C(N(=O)=O)S[C](C2=[S]C=CS2)S1,3.671018778748112,2.0071781793027186,0.0,H17C13S4NO6
CCc1cc(C(=O)C)c2c(c1)[nH]s[nH]2,3.250809878799919,0.9527541108196602,0.0,H12C10SN2O
C=Cc1cc(cs1)N(C)C,3.531559328979347,0.4154472273308784,0.0,H11C8SN
CNc1cc(N(=O)=O)sc1,4.2038672838185445,2.1307907803689887,0.0,H6C5S(NO)2
CCc1cscc1OCCOCCOC,4.41846585711537,-0.649015866247646,0.0,H18C11SO3
CCc1cc(cs1)C(=O)O,5.0280926314095264,0.6730181404687756,0.0,H8C7SO2
c12c(c(c(c(c1F)c1c(c(c3c(c1F)Oc1c(O3)cc3c(c1)CCC3)F)F)F)F)Oc1c(O2)cc2c(c1)CCC2,4.319629313563928,0.6309976874923451,0.0,H8C15O2F3
c12c(c(c3c(c1CN)oc1c(o3)cc3c(c1)CCC3)CN)oc1c(o2)cc2c(c1)CCC2,3.637068661680678,-0.3149110393700538,0.0,H12C13NO2
CNc1cc(c2ccccc2)sc1,3.6518331395069255,0.4223501540451253,0.0,H11C11SN
c1cc2c3c4c1c(=O)n1c(c4ccc3c(=O)n3c2nc2c3cc(c(c2)C)C)nc2c1cc(c(c2)C)C,4.525595325679751,2.4643721908447334,0.0,H10C15N2O
CCc1ccc(NC)s1,3.3540586257855467,-0.4595656430232337,0.0,H11C7SN
COCCOc1cc(cs1)O,4.016901688513462,-0.4009826982532103,0.0,H10C7SO3
c1cc2c(cc1N(=O)=O)[nH]sn2N(=O)=O,4.360839011531061,2.2974920254579048,0.0,H4C6S(NO)4
CC(=O)c1cc2c(cc1Cl)[nH]s[nH]2,3.5817112291857485,1.1146523344083108,0.0,H7C8SN2ClO
COCCOCCOCCOC1=C(O)S[C](C2=[S]C=CS2)S1,3.227835661158315,0.4383817163557979,0.0,H18C13S4O5
c12n(c(=O)c3ccc4c5c3c2ccc5c2n(c4=O)c3c(n2)cc(c(c3)OC)OC)c2c(n1)cc(c(c2)OC)OC,4.193906975809659,2.488023384170083,0.0,H10C15N2O3
c1c2c3c4c(c1)cccc4c1c4c3c(ccc4ccc1)c1c2C(=O)N(C1=O)C,4.208882839831494,1.787594175717095,0.0,H13C25NO2
COCCOc1ccc(N)s1,3.3354447766228987,-0.4891981570421193,0.0,H11C7SNO2
c1cc2c(cc1C(F)(F)F)[n]s[nH]2.[Cl],4.365036647775559,4.103221452629077,0.0,H4C7SN2ClF3
c1cc2c(c(c1)O)[nH]sn2.[Cl],4.392019211097795,3.755716940331331,0.0,H5C6SN2ClO
c1c2c3c4c(c1)ccc1c4c4c5c3c(ccc5ccc4c3c1C(=O)OC3=O)c1c2C(=O)N(C1=O)C,4.786181004362879,2.2624869039733317,0.0,H11C29NO5
C#Cn1c2cc(ccc2[nH]s1)F,3.66088631793682,3.219838129314303,0.0,H5C8SN2F
COCCOC1=C(c2ccccc2)S[C](C2=[S]C=CS2)S1,3.2439430207610718,0.5412074623760419,0.0,H14C15(S2O)2
Br[Ca],6.835806363233132,1.6698786477209069,1.0,CaBr
c12c(c(c3c(c1C)oc1c(o3)cc3c(c1)CCC3)C)oc1c(o2)cc2c(c1)CCC2,3.5629936665442075,-0.4919404005762771,0.0,H11C13O2
c1cc2c3c4c1c(=O)n1c(c4ccc3c3n(c2=O)c2c(n3)cc(c(c2)C)C)nc2c1cc(c(c2)C)C,4.336067275174719,2.48683890800894,0.0,H10C15N2O
c1c2c3c4c5c1c(=O)n(c(=O)c5cc1c4c4c5c3c(cc3c5c(cc4n(o1)c1ccccc1)c(=O)n(c3=O)C)on2c1ccccc1)C,3.73845806025347,2.665487137035234,0.0,H10C19N2O3
c1c2c3c4c5c1c(=O)n(c(=O)c5cc1c4c4c5c3c(cc3c5c(cc4ss1)c(=O)n(c3=O)C)ss2)C,4.3843632365547816,2.895869809589931,0.0,H5C13S2NO2
c1cc2c3c4c1c(=O)n(c(=O)c4cc1c3c3c4c2ccc2c4c(cc3s1)c(=O)n(c2=O)C)C,4.61832169991394,2.4628099825727987,0.0,H12C26S(NO2)2
c1c2c3c4c5c1c(=O)n(c(=O)c5cc1c4c4c5c3c(cc3c5c(cc4cc1)c(=O)n(c3=O)C)cc2)C,4.684192775757401,2.167035970874713,0.0,H7C15NO2
c1cc2c3c4c1c(=O)n(c(=O)c4cc1c3c3c4c2ccc2c4c(cc3on1C)c(=O)n(c2=O)C)C,3.773948866846331,2.5927424084962696,0.0,H15C27N3O5
CC(=O)c1cccc2c1[nH]sn2C(Cl)(Cl)Cl,3.647402737087396,4.313050915263011,0.0,H7C9SN2Cl3O
c1c2c3c4c5c1c(=O)n(c(=O)c5cc1c4c4c5c3c(cc3c5c(cc4n(o1)C)c(=O)n(c3=O)C)on2C)C,3.2382042895784253,2.4291346106634597,0.0,H8C14N2O3
c1c2c3c4c5c1c(=O)n(c(=O)c5cc1c4c4c5c3c(cc3c5c(cc4s1)c(=O)n(c3=O)C)s2)C,4.7374305421268215,2.4469860567201978,0.0,H5C13SNO2
c1c2c3c4c5c1c(=O)n(c(=O)c5cc1c4c4c5c3c(cc3c5c(cc4c4c1c1c(cc(c(c1)F)F)c1c4cc(c(c1)F)F)c(=O)n(c3=O)C)c1c2c2cc(c(cc2c2c1cc(c(c2)F)F)F)F)C,4.449566912365844,2.342370617983397,0.0,H9C27N(OF2)2
c1cc2c3c4c1c1ccc5c6cccc7c6c(ccc7)c6ccc(c4ccc3c3c4c2cccc4ccc3)c1c56,3.1449008516879986,1.807930331329408,0.0,HC2
c1c2c3c4c5c1c(=O)n(c(=O)c5cc1c4c4c5c3c(cc3c5c(cc4c(c1)c1c(c(c(c(c1F)F)F)F)F)c(=O)n(c3=O)C)cc2c1c(c(c(c(c1F)F)F)F)F)C,4.891982372364145,2.3125896114303037,0.0,H6C21NO2F5
c1c2c(ccc1)cccc2,4.566719046553407,0.3233340316906834,0.0,H4C5
C=Cc1cc(OCCOCCOC)sc1,4.096075122820912,0.3025870875841066,0.0,H16C11SO3
CNc1cscc1C(=O)O,3.9077191264819695,0.7078484179270164,0.0,H7C6SNO2
c1c2c(cc3c1cc1c(c3)cccc1)cc1c(c2)cccc1,3.348638730376115,1.6283238588708628,0.0,H7C11
c1c2c3c4c5c1c(=O)n(c(=O)c5cc1c4c4c5c3c(cc3c5c(cc4c(c1)c1cc(ccc1C(F)(F)F)C(F)(F)F)c(=O)n(c3=O)C)cc2c1c(ccc(c1)C(F)(F)F)C(F)(F)F)C,4.823949313978664,2.255624465071014,0.0,H9C23N(OF3)2
c1c2c3c4c5c1c(=O)n(c(=O)c5cc1c4c4c5c3c(cc3c5c(cc4c4c1c1c(cccc1)c1c4cccc1)c(=O)n(c3=O)C)c1c2c2ccccc2c2c1cccc2)C,4.212052957891137,2.2283428704045947,0.0,H13C27NO2
CNc1cc(cs1)C(F)(F)F,3.8804518722077774,0.0431306513943128,0.0,H6C6SNF3
c1c2c3c4c5c1c(=O)n(c(=O)c5cc1c4c4c5c3c(cc3c5c(cc4c4c1c1c(cc(cc1)F)c1c4ccc(c1)F)c(=O)n(c3=O)C)c1c2c2ccc(cc2c2c1ccc(c2)F)F)C,4.276113573281327,2.270423876887071,0.0,H11C27N(OF)2
c1c2c3c4c5c1c(=O)n(c(=O)c5cc1c4c4c5c3c(cc3c5c(cc4c4c1c1c(cc(cc1)C)c1c4ccc(c1)C)c(=O)n(c3=O)C)c1c2c2ccc(cc2c2c1ccc(c2)C)C)C,4.09534130525717,2.193845926952781,0.0,H17C29NO2
c1c2c3c4c5c1c(=O)n(c(=O)c5cc1c4c4c5c3c(cc3c5c(cc4c(c1c1cc(ccc1C)C)c1c(ccc(c1)C)C)c(=O)n(c3=O)C)c(c2c1c(ccc(c1)C)C)c1cc(ccc1C)C)C,4.554879204728058,2.154003201032174,0.0,H23C31NO2
c1c2c3c4c5c1c(=O)n(c(=O)c5cc1c4c4c5c3c(cc3c5c(cc4c(c1c1ccccc1)c1ccccc1)c(=O)n(c3=O)C)c(c2c1ccccc1)c1ccccc1)C,4.532911889918614,2.1757497553277063,0.0,H15C27NO2
c1cc2c3c4c1c(=O)n(c(=O)c4cc1c3c3c4c2ccc2c4c(cc3c(n1)c1ccccc1)c(=O)n(c2=O)C)C,4.754093607176037,2.440115770071861,0.0,H17C33N3O4
CC(=O)c1ccc2c(c1O)[nH]s[nH]2,3.7113649887665816,2.6983475307111804,0.0,H8C8S(NO)2
c1c2c3c4c5c1c(=O)n(c(=O)c5cc1c4c4c5c3c(cc3c5c(cc4c(c1c1cc(ccc1F)F)c1c(ccc(c1)F)F)c(=O)n(c3=O)C)c(c2c1c(ccc(c1)F)F)c1cc(ccc1F)F)C,4.894617963591008,2.298020206589717,0.0,H11C27N(OF2)2
c1c(c(cs1)C(F)(F)F)C(=O)O,5.823575737116334,0.8887016914974084,0.0,H3C6SO2F3
c1cc2c3c4c1c1cccc5cccc(c4ccc3c3c4c2cccc4ccc3)c15,3.352424266534945,1.5954196086036974,0.0,H8C15
C=Cn1c2cccc(C(=O)C)c2[nH]s1,3.2656149206355622,2.357454122074705,0.0,H10C10SN2O
c1cc2c(c(c1)N(=O)=O)n(F)s[nH]2,4.90676051030241,5.114342002403282,0.0,H4C6SN3O2F
COc1ccc(C#N)s1,4.695343540979229,0.7259901822413668,0.0,H5C6SNO
c1c2c3c4c5c1c(=O)n(c(=O)c5cc1c4c4c5c3c(cc3c5c(cc4c4c1c1c(c(c(c(c1C)C)C)C)c1c4c(c(c(c1C)C)C)C)c(=O)n(c3=O)C)c1c2c2c(c(c(c(c2c2c1c(c(c(c2C)C)C)C)C)C)C)C)C,3.77152404411172,2.0687641533237184,0.0,H29C35NO2
c1c(csc1N(=O)=O)O,5.182207980158273,2.216999032245076,0.0,H3C4SNO3
c1c2c3c4c5c1c(=O)n(c(=O)c5cc1c4c4c5c3c(cc3c5c(cc4c(c1)c1c(c(cc(c1C(F)(F)F)C(F)(F)F)C(F)(F)F)C(F)(F)F)c(=O)n(c3=O)C)cc2c1c(c(cc(c1C(F)(F)F)C(F)(F)F)C(F)(F)F)C(F)(F)F)C,4.858200644762837,2.2859586845093878,0.0,H7C25N(OF6)2
c1c2c3c4c5c1c(=O)n(c(=O)c5cc1c4c4c5c3c(cc3c5c(cc4c4c1c1c(cc(c(c1)C(F)(F)F)C(F)(F)F)c1c4cc(c(c1)C(F)(F)F)C(F)(F)F)c(=O)n(c3=O)C)c1c2c2cc(c(cc2c2c1cc(c(c2)C(F)(F)F)C(F)(F)F)C(F)(F)F)C(F)(F)F)C,4.795076430216431,2.5083972874213942,0.0,H9C31N(OF6)2
CC(C)(C)c1cscc1O,4.470138310401671,-0.4399702792383322,0.0,H12C8SO
c1c(c2c3c4c1c(=O)n(c(=O)c4cc(c3c1c3c2c(cc2c3c(cc1Oc1ccccc1)c(=O)n(c2=O)C)Oc1ccccc1)Oc1ccccc1)C)Oc1ccccc1,3.927119520690758,2.236253690463491,0.0,H15C25NO4
c1c2c3c4c5c1c(=O)n(c(=O)c5cc1c4c4c5c3c(cc3c5c(cc4c(c1c1ccccc1C)c1c(cccc1)C)c(=O)n(c3=O)C)c(c2c1c(cccc1)C)c1ccccc1C)C,4.616312084801029,2.180117228688323,0.0,H19C29NO2
c1c2c3c4c5c1c(=O)n(c(=O)c5cc1c4c4c5c3c(cc3c5c(cc4c(c1)c1cc(ccc1F)F)c(=O)n(c3=O)C)cc2c1cc(ccc1F)F)C,4.726587722683325,2.245718087311252,0.0,H9C21N(OF)2
CCc1cc(cs1)OCCOCCOCCOC,4.208484579461219,-0.3840670380872324,0.0,H22C13SO4
c1c2c3c4c5c1c(=O)n(c(=O)c5cc1c4c4c5c3c(cc3c5c(cc4cc1c1c(c(c(c(c1C)C)C)C)C)c(=O)n(c3=O)C)c(c2)c1c(c(c(c(c1C)C)C)C)C)C,4.5843950145732375,2.1559281696769177,0.0,H21C26NO2
CC(=O)n1c2cccc(c2[nH]s1)OC,3.678399338734016,2.325420875551208,0.0,H10C9S(NO)2
C#Cc1ccc(C(=O)C)c2c1[nH]s[nH]2,3.28406344703908,1.223306968387624,0.0,H8C10SN2O
c1c2c3c4c5c1c(=O)n(c(=O)c5cc1c4c4c5c3c(cc3c5c(cc4c(c1)c1ccccc1F)c(=O)n(c3=O)C)cc2c1ccccc1F)C,4.661716929158137,2.202986048492312,0.0,H10C21NO2F
c1(=O)n(c(=O)c2ccc3c4c2c1cc1c4c2c4c3ccc3c(=O)n(c(=O)c(c43)cc2n2n1c(=O)n(c2=O)C)C)C,4.094245799432974,2.643295905190462,0.0,H15C29N5O6
c1c2c3c4c5c1c(=O)n(c(=O)c5cc1c4c4c5c3c(cc3c5c(cc4c(c1C)C)c(=O)n(c3=O)C)c(c2C)C)C,4.5158485073057815,2.1385692796262448,0.0,H11C17NO2
c1cc2c3c4c1c(=O)n(c(=O)c4cc(c3c1c3c2c(cc2c3c(cc1)c(=O)n(c2=O)C)OC)OC)C,4.095085978123825,2.3622683900408448,0.0,H9C14NO3
CNc1c(ccs1)N(C)C,3.026503162667359,-0.6459305551892611,0.0,H12C7SN2
C=Cn1c2ccc(cc2[nH]s1)C#N,3.614799199831032,2.8427991646509327,0.0,H7C9SN3
Cc1cc(C(F)(F)F)sc1,5.261387531581567,0.4393787550630805,0.0,H5C6SF3
CC(C)(C)c1ccsc1N(C)C,3.72216786190038,-0.5255743975671066,0.0,H17C10SN
c1ccc(cc1)c1cc(N)sc1,3.697692911946069,0.1409754107495247,0.0,H9C10SN
CC(=O)n1c2ccccc2[nH]s1,3.739969532894611,2.785667955378449,0.0,H8C8SN2O
C=Cc1ccc(C(=O)O)s1,4.8166110405050855,1.372149831231218,0.0,H6C7SO2
C#Cn1c2cccc(C#N)c2[nH]s1,3.624665427197761,3.02360608907984,0.0,H5C9SN3
CC(=O)c1cccc2c1[nH]sn2N,3.3930803815434047,0.999981497481349,0.0,H9C8SN3O
CNc1ccc(OC)s1,3.1329891745241185,-0.310556148544856,0.0,H9C6SNO
C#Cc1cc(cs1)OCCOCCOC,4.41705740676989,0.6481670339504491,0.0,H14C11SO3
C#Cc1ccc(NC)s1,3.5689250924348017,0.3841047309048009,0.0,H7C7SN
CCc1ccsc1OCCOCCOC,4.048391472000366,-0.5733880997489904,0.0,H18C11SO3
c1c2c3c4c5c1c(=O)n(c(=O)c5cc1c4c4c5c3c(cc3c5c(cc4c(c1)C)c(=O)n(c3=O)C)cc2C)C,4.582033907268487,2.1469227690191475,0.0,H9C16NO2
CCn1c2ccc(cc2[nH]s1)N(=O)=O,3.4682258752451163,2.010162585103535,0.0,H9C8SN3O2
C#Cn1c2c(C)cccc2[nH]s1,3.659310046824976,2.463967367084115,0.0,H8C9SN2
c1(=O)n(c(=O)c2ccc3c4c2c1cc1c4c2c4c3ccc3c(=O)n(c(=O)c(c43)cc2c2c1C(=O)OC2=O)C)C,4.983020236695301,2.5964498425324565,0.0,H12C30N2O7
CCn1c2ccc(cc2[nH]s1)C(F)(F)F,3.372587659794226,2.082563334539009,0.0,H9C9SN2F3
c1c(c2c3c4c1c(=O)n(c(=O)c4cc(c3c1c3c2c(cc2c3c(cc1F)c(=O)n(c2=O)C)F)F)C)F,4.717493566627672,2.671353244711645,0.0,H5C13N(OF)2
CCc1cc(cs1)NC,3.5968179717980093,-0.566606971193687,0.0,H11C7SN
CC(C)(C)c1cc(cs1)N(C)C,3.4669260935603234,-0.7142570937852724,0.0,H17C10SN
c1c2c3c4c5c1c1n(c(=O)c5cc5c4c4c6c3c(cc3c6c(cc4cc5)c4n(c3=O)c3c(n4)cccc3)cc2)c2c(n1)cccc2,4.520620271084772,2.2042583521120838,0.0,H8C20N2O
c1cc(c2c(c1)[nH]s[nH]2)N,3.468966384074156,2.221879102774983,0.0,H7C6SN3
c1cc2c(c(C#N)c1C#N)[nH]s[nH]2,3.696762535682501,1.4146360941282183,0.0,H4C8SN4
CN(C)c1cc(N)sc1,3.1995970312251303,-0.5580941482643538,0.0,H10C6SN2
COc1cc(c2ccccc2)sc1,4.087347338115796,0.5170435330997862,0.0,H10C11SO
CN(C)c1cscc1OC,3.501268560697645,-0.6619854430995473,0.0,H11C7SNO
CC(C)(C)c1ccc(N)s1,3.5344150739198086,-0.5553097733412868,0.0,H13C8SN
Cc1c(ccs1)OCCOCCOC,4.147988693455408,-0.4187974388791189,0.0,H16C10SO3
CCn1ccc(=c2ccn(C)cc2)c(C#N)c1,2.186453845688084,0.3012270952727705,0.0,H15C14N3
CC(C)(C)c1ccc(OC)s1,3.962094535510551,-0.1963553175213745,0.0,H14C9SO
c1csc(c1N(=O)=O)C(F)(F)F,6.18488286469219,2.32789367468431,0.0,H2C5SNO2F3
COC1=C[CH]C=c2c1ns[nH]2.[Cl],4.193663706044026,3.5135077186947457,0.0,H7C7SN2ClO
CNc1ccsc1C(=O)O,4.15777615475381,0.6358797879889608,0.0,H7C6SNO2
c1c(c(cs1)F)C(Cl)(Cl)Cl,5.483043565037951,2.699275240252609,0.0,H2C5SCl3F
COCCOCCOCCOc1cc(N)sc1,3.5316983247226745,-0.5524660830400534,0.0,H19C11SNO4
COCCOCCOc1cc(OC)sc1,3.903896337940387,-0.0980054141968138,0.0,H16C10SO4
COCCOCCOc1cscc1C(Cl)(Cl)Cl,4.788673656914034,2.7269431059699856,0.0,H13C10S(ClO)3
c1cscc1C(F)(F)F,5.474074543258757,0.2501200183447509,0.0,H3C5SF3
Cc1cscc1OCCOC,4.398834968867595,-0.6660787563327175,0.0,H12C8SO2
c1ccc(cc1)c1cc(cs1)C(Cl)(Cl)Cl,4.639972132719413,2.877790019208624,0.0,H7C11SCl3
CCc1ccc(C(=O)C)c2c1[nH]s[nH]2,3.275215812520037,0.887134748454264,0.0,H12C10SN2O
c1c(c(cc2c1[nH]s[nH]2)C(=O)O)C(=O)O,3.552994035371376,2.7795313774273382,0.0,H6C8S(NO2)2
CCc1cscc1OCCOCCOCCOC,4.421610810082347,-0.6767693552959826,0.0,H22C13SO4
C=Cc1c(ccs1)N,3.696930897958373,0.3477655849324947,0.0,H7C6SN
COCCOCCOc1ccsc1N(=O)=O,5.34205590488782,2.0386019479752577,0.0,H13C9SNO5
COc1cc(O)sc1,3.962616245765821,-0.3809044222056399,0.0,H6C5SO2
c1c(c(cs1)O)N,3.874679222024133,-0.4336584518117887,0.0,H5C4SNO