smiles,IE,EA,charge,formula_pretty
CN(C)c1c(ccc2c1ONO2)C(=O)O,4.085196389789052,0.7381398120684026,0.0,H10C9(NO2)2
C#Cc1cc(c2c(c1)ONO2)Cl,4.641443827762123,0.636143414596154,0.0,H4C8NClO2
c1c(cc2c(c1Cl)ONO2)N(=O)=O,5.053072469546896,2.201400430259673,0.0,H3C6N2ClO4
c1cc(c2c(c1)ON(C(=O)O)O2)Cl,4.8237324528578025,0.8063553690313712,0.0,H4C7NClO4
c1cc2c(c(c1C(Cl)(Cl)Cl)Cl)ONO2,4.849492835930141,2.622561413010408,0.0,H3C7N(Cl2O)2
C#Cc1ccc(c2c1ONO2)Cl,4.736346636514645,1.253774275961041,0.0,H4C8NClO2
CN(C)[N]Oc1cccc(c1[O])Cl,3.534537253026065,2.419085996281501,0.0,H9C8N2ClO2
c1cc2c(cc1C(Cl)(Cl)Cl)ON(C(Br)(Br)Br)O2,4.914611857116688,4.768478015461005,0.0,H3C8Br3NCl3O2
Cc1ccc(c2c1ONO2)Cl,4.556130724298418,1.2069320011338278,0.0,H6C7NClO2
C=Cc1c(ccc2c1ONO2)F,4.502321050823957,0.643822959651152,0.0,H6C8NO2F
c1cc(c2c(c1)ON(C(Cl)(Cl)Cl)O2)Cl,4.9061509562539865,2.3185633265471552,0.0,H3C7N(Cl2O)2
CCc1cc(c2c(c1)ONO2)Cl,4.501097684145497,1.213456281440449,0.0,H8C8NClO2
C=Cc1cccc2c1ON(C(Cl)(Cl)Cl)O2,4.7122549915526175,2.2908125178160845,0.0,H6C9NCl3O2
CN(C)c1cn(C)c(cc1=c1ccn(C)cc1)C(F)(F)F,2.044539969892503,0.3303269573385479,0.0,H6C5NF
CCc1cc(C=C)c2c(c1)ONO2,4.322529938240768,0.5241008381595749,0.0,H11C10NO2
C=Cc1cc(cc2c1ONO2)C(Cl)(Cl)Cl,4.646061049935815,3.173333754560736,0.0,H6C9NCl3O2
CCc1cccc2c1ON(C(=O)O)O2,4.581744614891795,0.7058850131776127,0.0,H9C9NO4
c1cc2c(c(c1C(Br)(Br)Br)C(Br)(Br)Br)ONO2,4.78089230597252,3.764154755068012,0.0,H3C8Br6NO2
CCc1cccc2c1ON(C(F)(F)F)O2,4.739019662456121,-0.2184811522442031,0.0,H8C9NO2F3
CCc1cccc2c1ON(OC)O2,4.223396853196027,-0.3704952025531383,0.0,H11C9NO3
c1ccc(cc1)c1ccc(c2c1ONO2)Cl,4.6243576311295325,0.5735896540842078,0.0,H8C12NClO2
C=Cc1ccc(c2c1ONO2)C(F)(F)F,4.695774305351369,0.991504228944541,0.0,H6C9NO2F3
C=Cc1c(ccc2c1ONO2)C(=O)O,4.639159788553661,1.120191031999275,0.0,H7C9NO4
c1c(cc2c(c1C(Br)(Br)Br)ONO2)C(Br)(Br)Br,4.799701483885292,3.2932625955087134,0.0,H3C8Br6NO2
C=Cc1c(ccc2c1ONO2)C#N,4.743330677641643,1.0330224060395268,0.0,H6C9(NO)2
CN(C)C1=CN(C)C=C[C]1[C]1C=CN(C)C=C1C(F)(F)F,1.9423267412326823,-0.0999631045509885,0.0,H6C5NF
CCc1c(ccc2c1ONO2)OC,4.1006200960415295,-0.2227808692681718,0.0,H11C9NO3
C#Cc1ccc(C=C)c2c1ONO2,4.562110148344436,0.9376052994099155,0.0,H7C10NO2
c1ccc(cc1)c1cc(c2c(c1)ONO2)Cl,4.46939792130579,0.4924121176896734,0.0,H8C12NClO2
CN(C)c1cc(=c2ccn(C)cc2)ccn1C,1.7919799841161876,-0.324914333198103,0.0,H19C14N3
CN(C)c1cc(=c2ccn(C)cc2)ccn1CC(Cl)(Cl)Cl,2.039450534984644,2.5218896058373503,0.0,H6C5NCl
C=CCn1ccc(=c2ccn(C)cc2)cc1N(C)C,1.8569728261369165,-0.4655383295343198,0.0,H21C16N3
CCc1c(ccc2c1ONO2)NC,3.616937715274253,-0.3964245247865618,0.0,H12C9(NO)2
CNc1cc(=c2ccn(C)cc2)ccn1COCCOCCOCCOC,1.799691576002806,-0.4313675362776847,0.0,H31C20N3O4
CCc1cc(cc2c1ONO2)OC,3.930233776505338,-0.07629087682144,0.0,H11C9NO3
C=Cc1cccc2c1ON(OC)O2,4.144292810645856,0.5476227230006772,0.0,H9C9NO3
C#Cc1ccc2c(c1C=C)ONO2,4.464194353673156,0.7610836754134653,0.0,H7C10NO2
C=Cc1cc(cc2c1ONO2)C(F)(F)F,4.710433009809639,0.7642056429263904,0.0,H6C9NO2F3
CCc1cccc2c1ONO2,4.365228169651891,-0.3493051210647535,0.0,H9C8NO2
CCc1cccc2c1ON(C)O2,4.1459380898264495,-0.5360806502925697,0.0,H11C9NO2
CCc1c(C)ccc2c1ONO2,4.263434371821495,-0.4242956159945605,0.0,H11C9NO2
CN(C)c1ccc2c(c1Cl)ONO2,3.8800619221961834,1.3569307681878855,0.0,H9C8N2ClO2
C=Cc1cccc2c1ON(O)O2,4.358639401086839,0.5402390690938774,0.0,H7C8NO3
C=Cc1ccc(c2c1ONO2)OC,4.41337032956435,0.4411925706750481,0.0,H9C9NO3
C#Cc1ccc2c(c1CC)ONO2,4.41070080300924,0.4297242404278223,0.0,H9C10NO2
C#Cc1cc(C)cc2c1ONO2,4.44137006531273,0.5945097415056808,0.0,H7C9NO2
c1ccc(cc1)c1cc(c2c(c1)ONO2)F,4.484113111147599,0.4973165723436978,0.0,H8C12NO2F
COCCOCCOCCOc1cc(cs1)N(=O)=O,4.793374194903299,1.985004441654019,0.0,H17C11SNO6
Cc1ccsc1OCCOCCOCCOC,4.040889859462913,-0.4095892154240572,0.0,H20C12SO4
c1cc2c(c(c1O)F)ONO2,4.410413107934437,0.2634461214707699,0.0,H4C6NO3F
Cc1ccc(OCCOCCOCCOC)s1,4.017996919502911,-0.3109273771282459,0.0,H20C12SO4
C#Cc1cc(cc2c1ONO2)c1ccccc1,4.416383187589963,0.5685419097222622,0.0,H9C14NO2
C#Cc1cc(cc2c1ONO2)F,4.623074208926118,0.771709266382095,0.0,H4C8NO2F
COc1ccc2c(c1F)ONO2,4.326819388411968,0.3366301260990441,0.0,H6C7NO3F
CC(=O)c1ccsc1OCCOCCOC,4.56564096145812,0.6412292440159946,0.0,H16C11SO4
C#Cc1cc(cc2c1ONO2)C(F)(F)F,4.829577251306182,0.8548351786754211,0.0,H4C9NO2F3
CCc1cc(cc2c1ONO2)C(F)(F)F,4.658851505134953,0.3435146062161949,0.0,H8C9NO2F3
CCc1cccc2c1ON(N)O2,3.283368530882945,-0.3105659119868504,0.0,H5C4NO
C#Cc1c(C)ccc2c1ONO2,4.448121604212792,0.5854178875357321,0.0,H7C9NO2
C#Cc1cc(cc2c1ONO2)OC,4.227154802448785,0.6021649486952811,0.0,H7C9NO3
CC(=O)c1c(ccs1)OCCOCCOC,4.819989839941263,0.9994836842612131,0.0,H16C11SO4
C#Cc1c(ccc2c1ONO2)O,4.325925298527727,0.5824301184053184,0.0,H5C8NO3
CCc1c(ccc2c1ONO2)C(Cl)(Cl)Cl,4.632814325139043,2.648705373192206,0.0,H8C9NCl3O2
c1ccc(cc1)c1ccc2c(c1F)ONO2,4.501875535164436,0.3557304821566505,0.0,H8C12NO2F
CCc1cc(C)cc2c1ONO2,4.237408065495037,-0.3468877787294331,0.0,H11C9NO2
C#Cc1cc(cc2c1ONO2)N(=O)=O,4.996284295140503,2.1601246766636906,0.0,H2C4NO2
C#Cc1ccc(c2c1ONO2)F,4.763260433961113,0.6010516439033382,0.0,H4C8NO2F
C#Cc1c(ccc2c1ONO2)F,4.622456730923295,0.7442496249037505,0.0,H4C8NO2F
c1cc2c(c(c1C(Cl)(Cl)Cl)F)ONO2,4.885850866603141,2.69061910584569,0.0,H3C7NCl3O2F
COCCOCCOCCOc1cc(cs1)C(Cl)(Cl)Cl,4.55704481183202,2.9759132517006948,0.0,H17C12SCl3O4
COCCOCCOc1c(ccs1)N(=O)=O,4.983145275722199,1.8721461522851317,0.0,H13C9SNO5
COCCOCCOCCOc1c(ccs1)O,3.9099771896995663,-0.4169084817607653,0.0,H18C11SO5
c1cc2c(c(c1C#N)F)ONO2,4.9629883043504375,0.8833334977258347,0.0,H3C7N2O2F
Cc1ccc(OCCOCCOC)s1,3.9952833243274655,-0.2943560879015421,0.0,H16C10SO3
CCc1ccc(c2c1ONO2)OC,4.382762496961368,-0.1507756617887934,0.0,H11C9NO3
CCc1c(ccc2c1ONO2)C(Br)(Br)Br,4.620388388191349,2.9888576661702246,0.0,H8C9Br3NO2
COCCOCCOCCOc1c(ccs1)c1ccccc1,3.990878557758697,0.1975290611240781,0.0,H22C17SO4
Cc1ccc2c(c1F)ONO2,4.526622337727167,0.173083752529783,0.0,H6C7NO2F
COCCOCCOc1c(ccs1)C(Br)(Br)Br,4.510225764615461,2.967566578788683,0.0,H13C10S(BrO)3
COCCOCCOc1ccc(C(Cl)(Cl)Cl)s1,4.575257546153443,3.0676512214064133,0.0,H13C10S(ClO)3
C#Cc1ccc(C)c2c1ONO2,4.501334189173212,0.515883005674914,0.0,H7C9NO2
COCCOCCOCCOc1ccc(C(Cl)(Cl)Cl)s1,4.579476856242399,3.081311178285978,0.0,H17C12SCl3O4
COCCOCCOc1cc(cs1)N(=O)=O,4.746791459541418,2.004810484134941,0.0,H13C9SNO5
COCCOCCOCCOc1c(ccs1)C#N,4.762754177050374,0.5099443497252651,0.0,H17C12SNO4
COc1cccc2c1ONO2,4.433200954808489,-0.1597954627344733,0.0,H7C7NO3
C#Cc1ccc(c2c1ONO2)C(F)(F)F,4.820615680002083,1.035825469732663,0.0,H4C9NO2F3
COc1cc(c2c(c1)ONO2)F,4.3082596735635885,0.2054744205794123,0.0,H6C7NO3F
c1cc(c2c(c1)ON(C(Br)(Br)Br)O2)F,4.893644168821629,5.033718021755339,0.0,H3C7Br3NO2F
COCCOCCOc1cc(OCCOC)sc1,3.949834541746532,-0.0615272044437005,0.0,H20C12SO5
c1cc(c2c(c1C(F)(F)F)ONO2)F,4.9159313208198,0.6490295776762651,0.0,H3C7N(OF2)2
CNc1ccc2c(c1F)ONO2,3.838772432290716,0.1847027658128355,0.0,H7C7N2O2F
CC(=O)c1ccc(OCCOCCOC)s1,4.602953311686724,0.969063925860246,0.0,H16C11SO4
c1cc2c(c(c1C#N)O)ONO2,4.796789969173551,0.6597675951976272,0.0,H4C7N2O3
Cc1cccc2c1ON(C(=O)O)O2,4.585527789092884,0.7261816034420918,0.0,H7C8NO4
COCCOc1ccc2c(c1F)ONO2,4.339068045906606,0.3582875603875437,0.0,H10C9NO4F
COCCOCCOc1cc(cs1)C(Br)(Br)Br,4.5148903563909695,2.7565774839546067,0.0,H13C10S(BrO)3
C#Cc1c(ccc2c1ONO2)NC,3.767950903680321,0.516923705051886,0.0,H8C9(NO)2
C#Cc1cccc2c1ON(OC)O2,4.282810232254269,0.5972729813453044,0.0,H7C9NO3
COCCOCCOCCOc1ccc(OCCOCCOCCOC)s1,3.7250072745751823,-0.2482978927713701,0.0,H32C18SO8
C#Cc1cccc2c1ON(C(Cl)(Cl)Cl)O2,4.847139538310875,4.88352995053865,0.0,H4C9NCl3O2
CN(C)c1ccsc1OCCOC,3.238370061329624,-0.2171815093410258,0.0,H15C9SNO2
CCc1cc(cc2c1ONO2)C(Cl)(Cl)Cl,4.58207864278811,2.68946028729406,0.0,H8C9NCl3O2
C#Cc1c(ccc2c1ONO2)N,3.871174224351853,0.5150100753668085,0.0,H3C4NO
COCCOCCOc1ccc(Cl)s1,4.218805881844309,1.2414229526344571,0.0,H13C9SClO3
c1cc2c(c(c1C(F)(F)F)F)ONO2,4.930541289687971,0.5480760401638691,0.0,H3C7N(OF2)2
CCc1cccc2c1ON(C(Cl)(Cl)Cl)O2,4.647180433750327,2.259890932511189,0.0,H8C9NCl3O2
CC(=O)c1cc(OCCOCCOC)sc1,4.485374334298831,0.8014584845892387,0.0,H16C11SO4
CN(C)c1ccsc1OCCOCCOC,3.262112059057108,-0.531687252636766,0.0,H19C11SNO3
CNC1=CN(C=C[C]1[C]1C=CN(C)C=C1)CC(F)(F)F,1.8772849731445604,-0.1408359664077578,0.0,H16C14(NF)3
COc1ccc(c2c1ONO2)F,4.635643185226945,0.1542093598050997,0.0,H6C7NO3F
c1ccc(cc1)c1ccc(c2c1ONO2)F,4.653650538910005,0.4409053708419379,0.0,H8C12NO2F
c1cc2c(c(c1N)F)ONO2,3.959258211334236,0.1848296769891022,0.0,H5C6N2O2F
c1cc2c(c(c1N(=O)=O)F)ONO2,5.065411727345781,2.13749256325682,0.0,H3C6N2O4F
c1cc(c2c(c1)ON(C(Cl)(Cl)Cl)O2)F,4.9273480990974345,2.3282024857995567,0.0,H3C7NCl3O2F
C#Cc1c(ccc2c1ONO2)C(Br)(Br)Br,4.772281388688134,2.768653787288349,0.0,H4C9Br3NO2
CNc1c(ccc2c1ONO2)C(=O)O,4.132767703844001,0.7237142411409878,0.0,H4C4NO2
COCCOCCOCCOc1cccs1,4.224822539233719,-0.2565327704673108,0.0,H18C11SO4
Cc1cccc2c1ONO2,4.365258096731486,-0.2066412886473698,0.0,H7C7NO2
C#Cc1c(ccc2c1ONO2)C(F)(F)F,4.835536081774626,0.9552279766445282,0.0,H4C9NO2F3
C#Cc1c(ccc2c1ONO2)N(C)C,3.777155611421768,0.5709366312308704,0.0,H5C5NO
CC(C)(C)c1cc(C(C)(C)C)sc1,4.518810471877805,-0.7223323304482618,0.0,H20C12S
C#Cc1cccc2c1ON(C(F)(F)F)O2,4.934730011476495,0.6932501581191901,0.0,H4C9NO2F3
c1cc2c(c(c1C(=O)O)F)ONO2,4.865472721108381,0.9903899989636558,0.0,H4C7NO4F
CCCn1ccc(=c2ccn(C)cc2)cc1NC,1.6737715366703925,-0.4953061956934106,0.0,H7C5N
C=Cc1c(ccs1)OCCOCCOCCOC,4.033447031689866,0.4060619502866758,0.0,H20C13SO4
C#CCn1ccc(=c2ccn(C)c(c2)N(C)C)cc1,1.8847264294723571,-0.3952605904982191,0.0,H19C16N3
COCCOCCOc1cc(cs1)C(F)(F)F,4.586240721911599,0.2291203893269995,0.0,H13C10S(OF)3
Cc1c(ccc2c1ONO2)C(=O)O,4.61532345985106,0.8040835096377124,0.0,H7C8NO4
CCc1ccc(OCCOCCOCCOC)s1,4.063204878622491,-0.361203192535322,0.0,H22C13SO4
c1cc(c2c(c1)ONO2)N(=O)=O,4.85432351508789,2.1487419343808143,0.0,H2C3NO2
Cc1c(ccc2c1ONO2)C#N,4.711572701480327,0.6841861250664807,0.0,H3C4NO
COc1c(ccc2c1ONO2)C(F)(F)F,4.684481352478178,0.3459583708041465,0.0,H6C8N(OF)3
c1c(cc2c(c1F)ONO2)C(Br)(Br)Br,4.806590881105512,2.890056777681457,0.0,H3C7Br3NO2F
COc1c(ccc2c1ONO2)C(=O)O,4.645566025881271,0.8750242513175182,0.0,H7C8NO5
Cc1c(ccc2c1ONO2)C(F)(F)F,4.673621993949928,0.3550612970917428,0.0,H6C8NO2F3
C=Cc1cc(cs1)OCCOCCOCCOC,4.083344984364521,0.5692911125966931,0.0,H20C13SO4
Cc1cccc2c1ON(O)O2,4.666696568868792,-0.3375102025096566,0.0,H7C7NO3
COc1ccc(c2c1ONO2)N(=O)=O,4.815581674670829,1.995805401829421,0.0,H6C7N2O5
C#Cc1ccc(OCCOCCOC)s1,4.18073707963922,0.525448337726266,0.0,H14C11SO3
C=CCn1ccc(=c2ccn(C)c(c2)N(C)C)cc1,1.8171025432362515,-0.3898764998251862,0.0,H21C16N3
COCCOCCOc1cc(cs1)c1ccccc1,4.1346802477943125,0.200852553427103,0.0,H18C15SO3
CN(C)[N]Oc1c(cccc1[O])F,3.584177508475113,2.4013204674389272,0.0,H9C8N2O2F
Cc1c(ccc2c1ONO2)N,3.7203140183479264,-0.5138178824439819,0.0,H8C7(NO)2
c1ccc(cc1)c1ccsc1c1ccccc1,4.317899300856515,0.5695783233073599,0.0,H12C16S
COc1cccc2c1ON(C(=O)O)O2,4.645127315788704,0.7287945439216856,0.0,H7C8NO5
CC(C)(C)c1cc(cs1)c1ccccc1,4.350181890729436,0.1645183871420159,0.0,H16C14S
CCC1=CN(C)C=C[C]1[C]1C=CN(C)C(=C1)C#C,1.8650597038336856,0.4417926361107676,0.0,H9C8N
CNc1c(ccs1)OCCOCCOCCOC,3.331505928801198,-0.6100500053929863,0.0,H21C12SNO4
c1cc(c2c(c1)ON(C(F)(F)F)O2)C(Cl)(Cl)Cl,5.043379818148969,2.6791514259544784,0.0,H3C8NCl3O2F3
COCCOCCOCCOc1ccsc1N(=O)=O,5.348620384576497,2.032530184814823,0.0,H17C11SNO6
COCCOc1cc(c2c(c1)ONO2)F,4.275177645887743,0.2492450226942311,0.0,H10C9NO4F
CNc1ccsc1OCCOCCOCCOC,3.31702146428288,-0.3746281110783456,0.0,H21C12SNO4
Cc1c(ccc2c1ONO2)N(=O)=O,4.804320507407828,1.946439774562896,0.0,H6C7(NO2)2
CNCn1ccc(=c2ccn(C)cc2)c(c1)N(C)C,1.7975863019906684,-0.3777907732095626,0.0,H22C15N4
c1ccc(cc1)c1c(ccc2c1ONO2)O,4.193458853298216,0.3313457896416367,0.0,H9C12NO3
c1cc(c2c(c1)ON(C(=O)O)O2)C(Br)(Br)Br,4.833841081935679,3.44375644105603,0.0,H4C8Br3NO4
CCCn1ccc(=c2ccn(C)cc2N(C)C)cc1,1.7569906152981276,-0.4212744312848371,0.0,H23C16N3
c1cc(c2c(c1)ON(C(=O)O)O2)N(=O)=O,5.044996405651181,2.230686282132956,0.0,H4C7(NO3)2
CC(=O)c1cc(cs1)OCCOCCOC,4.578182639293663,1.2177572991691703,0.0,H16C11SO4
Cc1cccc2c1ON(C(Br)(Br)Br)O2,4.620108448370592,2.504850797815016,0.0,H6C8Br3NO2
ClC(Cl)(Cl)Cl,7.508931313824723,2.426816448388854,0.0,CCl4
CC(C)(C)c1c(ccs1)c1ccccc1,4.571865775041806,-0.0777948119088249,0.0,H16C14S
S(=O)(C)C,5.0803273916204486,-0.9062755818380536,0.0,H6C2SO
CNc1c(ccc2c1ONO2)O,3.8766992590986775,-0.4724651859309232,0.0,H8C7N2O3
Cc1cccc2c1ON(C(F)(F)F)O2,4.735055856357212,-0.2742673599590488,0.0,H6C8NO2F3
COc1c(ccc2c1ONO2)C(Br)(Br)Br,4.641754328703973,3.145487567200325,0.0,H6C8Br3NO3
CC(C)(C)c1c(ccs1)OCCOCCOCCOC,4.117200873873662,-0.5659345615698839,0.0,H26C15SO4
c1cc(c2c(c1)ON(C#N)O2)N(=O)=O,5.379514606103475,2.3146656114564395,0.0,H3C7N3O4
COc1ccc(c2c1ONO2)C(F)(F)F,4.693581402517884,0.3977132800297114,0.0,H6C8N(OF)3
COc1cc(cc2c1ONO2)N(=O)=O,4.860508714338357,2.089715593721485,0.0,H6C7N2O5
COCCOCCOc1ccc(F)s1,4.2058679736052,0.1941129113416537,0.0,H13C9SO3F
COc1cccc2c1ON(C(Cl)(Cl)Cl)O2,4.684468135908537,2.308628795873665,0.0,H6C8N(ClO)3
c1cc2c(c(c1N)N(=O)=O)ONO2,4.1312474038328215,1.9738191995980745,0.0,H5C6N3O4
c1cc2c(c(c1C(=O)O)N(=O)=O)ONO2,5.035163506783283,2.2697828174983443,0.0,H4C7(NO3)2
CCc1cccc2c1ON(N(=O)=O)O2,4.367329040871118,3.2316914815906785,0.0,H4C4NO2
Cc1cccc2c1ON(N(=O)=O)O2,4.362615612849913,3.245174286913971,0.0,H6C7(NO2)2
C(=O)N,6.496461506639752,-0.8489390572289266,0.0,H3CNO
COCCOCCOCCOc1c(ccs1)C(=O)O,4.647075046779355,0.6788714424779756,0.0,H18C12SO6
c1cc(c2c(c1C(F)(F)F)ONO2)N(=O)=O,5.119867967788741,2.3836032823543065,0.0,H3C7N2O4F3
COCCOCCOCCOc1cc(F)sc1,4.371386709908256,0.2630222851235886,0.0,H17C11SO4F
Cc1cc(C(C)(C)C)sc1,4.521797541675914,-0.6822087476633896,0.0,H14C9S
N,5.685407949133014,-1.0762965694967987,0.0,H3N
CC(C)(C)c1c(ccs1)NC,3.5034371637753794,-0.6659709557156019,0.0,H15C9SN
COCCOCCOc1cscc1c1ccccc1,4.606326949122012,0.1717172567019589,0.0,H18C15SO3
CC1=CN(C)C=C[C@H]1[C@H]1C=CN(C)C=C1C(=O)O,2.012861263212108,0.3754706349987828,0.0,H8C7NO
CN(C)c1c(ccs1)C(F)(F)F,3.935357367155666,0.3098494957281219,0.0,H8C7SNF3
CC(=O)c1ccc2c(c1C(Cl)(Cl)Cl)[nH]s[nH]2,3.587775999026781,3.1415239651993034,0.0,H7C9SN2Cl3O
COCCOCCOc1ccsc1,4.417206745567091,-0.3877170044019293,0.0,H14C9SO3
COCCOCCOc1c(ccs1)OCCOC,3.87690448735666,-0.4097095387172884,0.0,H20C12SO5
CN(C)c1cscc1C(F)(F)F,3.947898699412326,0.202837310943869,0.0,H8C7SNF3
CC(=O)c1cc2c(cc1C(Cl)(Cl)Cl)[nH]s[nH]2,3.604201568561257,3.160422230475524,0.0,H7C9SN2Cl3O
CC(=O)n1c2ccc(cc2[nH]s1)C#N,3.95497198027224,2.9471823433501414,0.0,H7C9SN3O
CC(C)(C)C1=CN(C)C=C[C]1[C]1C=CN(C)C(=C1)N(=O)=O,2.2089623785956065,1.6784152763299065,0.0,H21C16N3O2
CC(=O)c1c(ccc2c1[nH]s[nH]2)N(=O)=O,3.713677561836085,2.1606920639475,0.0,H7C8S(NO)3
CNC1=CN(C)C=C[C]1[C]1C=CN(C)C(=C1)F,1.811389491425507,-0.0892026131536112,0.0,H16C13N3F
CNc1c(ccs1)OCCOCCOC,3.2894735000896618,-0.666091809633508,0.0,H17C10SNO3
COCCOCCOCCOc1c(ccs1)Cl,4.467507957358611,1.2049742645118386,0.0,H17C11SClO4
c1cc2c(c(c1)O)[nH]s[nH]2,3.4244236725440715,2.192741501244745,0.0,H6C6SN2O
CN(C)c1cc(C(Br)(Br)Br)sc1,3.788174733426422,3.265048613678664,0.0,H8C7SBr3N
CC(=O)n1c2ccccc2n(C(Cl)(Cl)Cl)s1,4.086216057484853,4.141000823679496,0.0,H7C9SN2Cl3O
COCCOn1c2ccccc2n(Cl)s1,4.6000051215101845,4.061077974272484,0.0,H11C9SN2ClO2
C#C[C]1C=CC=c2c1ns[nH]2.[Cl],4.4074987469590265,3.9802917375651305,0.0,H5C8SN2Cl
C#Cc1cccc2c1n(CC)s[nH]2,3.3817958723571797,0.5393921800801764,0.0,H10C10SN2
C[C]1C=Cc2c(=C1)[nH]sn2.[Cl],4.387382040267402,3.652372284095327,0.0,H7C7SN2Cl
C=Cn1c2cccc(c2[nH]s1)O,3.376913635800156,2.245297581635532,0.0,H8C8SN2O
C#Cn1c2c(cccc2OC)[nH]s1,3.35806457687213,2.759562706110592,0.0,H8C9SN2O
COC1=Cc2c(=C[CH]1)[nH]sn2.[Cl],4.355324376972567,3.651994786015712,0.0,H7C7SN2ClO
C1=Cc2c(=C[C]1C(Br)(Br)Br)[nH]sn2.[Cl],4.405558893654961,3.995768054324435,0.0,H4C7SBr3N2Cl
CC(=O)n1c2c(cccc2N(=O)=O)[nH]s1,4.058494672420784,2.0214791873964715,0.0,H7C8S(NO)3
[CH]1C=Cc2c(=C1)[nH]sn2.[Cl],4.409964819432934,3.769859817637189,0.0,H5C6SN2Cl
c1cc2c(cc1F)ns[nH]2.[Cl],4.302517785852251,3.98501844475104,0.0,H4C6SN2ClF
c1cc2c(cc1C(F)(F)F)[nH]s[n]2.[Cl],4.394232119747903,4.117532137106172,0.0,H4C7SN2ClF3
C#Cn1c2c(cccc2N(=O)=O)[nH]s1,3.784912319793512,2.115157383193582,0.0,H5C8SN3O2
C=CC1=C[C](C=CN1C)[C]1C=CN(C)C=C1NC,1.7087065942811024,0.4000445718025731,0.0,H19(C5N)3
C=Cn1c2cccc(c2[nH]s1)C(F)(F)F,3.547275339916814,2.399691370873916,0.0,H7C9SN2F3
C=Cn1c2ccccc2n(C(Br)(Br)Br)s1,3.709359969617799,4.482389038742985,0.0,H7C9SBr3N2
c1cc(c2c(c1)[nH]sn2F)C(Cl)(Cl)Cl,4.79167397593992,4.742822861518652,0.0,H4C7SN2Cl3F
c1ccc2c(c1)n(N(=O)=O)sn2N(=O)=O,4.8512131396215405,3.142181642584182,0.0,H4C6S(NO)4
C=Cc1cccc2c1[nH]sn2.[Cl],4.307937180581211,3.917702085238125,0.0,H7C8SN2Cl
CN(C)n1c2cccc(C#N)c2[nH]s1,3.659553166935075,0.7911391278081283,0.0,H10C9SN4
Cc1cccc2c1[nH]sn2F,4.619437023795035,4.260519643486623,0.0,H7C7SN2F
CN1C=C[C]([C]2C=CN(C)C=C2OCCOCCOCCOC)C(=C1)N,1.6301880645129132,-0.1462701858821673,0.0,H29C19N3O4
CC(=O)c1ccc2c(c1)n(F)s[nH]2,4.801500501902046,4.53541996044587,0.0,H7C8SN2OF
CN1C=C[C]([C]2C=CN(C)C(=C2)F)C(=C1)N,1.828219906497543,-0.0695207879201915,0.0,H14C12N3F
C1=Cc2c(=C[C]1Cl)[nH]sn2.[Cl],4.436038481727882,3.878943624107342,0.0,H4C6S(NCl)2
CN1C=C[C]([C]2C=CN(C)C(=C2)Cl)C(=C1)O,1.979765093781316,1.4238795100660355,0.0,H13C12N2ClO
C#Cc1cccc2c1[nH]sn2CC,3.066087769578735,2.1243182316262392,0.0,H10C10SN2
CC(=O)c1c(ccc2c1[nH]s[nH]2)F,3.3459388386378124,1.0747371908269998,0.0,H7C8SN2OF
c1cc(C#N)c2c(c1)n(N)s[nH]2,3.680374158660561,0.8142726708261763,0.0,H6C7SN4
CC(=O)n1c2c(cccc2[nH]s1)C(Cl)(Cl)Cl,4.000947240545065,1.9936734089438688,0.0,H7C9SN2Cl3O
C=Cn1c2cc(ccc2[nH]s1)OC,3.293361647652637,2.7287999346059224,0.0,H10C9SN2O
CC(C)(C)C1=C[C](C=CN1C)[C]1C=CN(C)C=C1NC,1.699950188647199,-0.0881701669917673,0.0,H25C17N3
CC(=O)c1cc2c(c(c1)OC)[nH]s[nH]2,3.494797119457508,0.999407783548668,0.0,H10C9S(NO)2
Cc1ccc2c(c1)[nH]sn2C(=O)C,3.528221836420562,1.917576175337308,0.0,H10C9SN2O
CCC1=C[C](C=CN1C)[C]1C=CN(C)C=C1NC,1.6585063993094082,-0.3089381732665059,0.0,H7C5N
CCn1c2cccc(c2[nH]s1)N,3.2803157211033978,1.8967006710459828,0.0,H11C8SN3
Cn1c2ccc(cc2[nH]s1)N(=O)=O,3.378603261373064,1.94409870845775,0.0,H7C7SN3O2
c1ccc2c(c1)n(C#N)sn2C(F)(F)F,4.320912060925911,2.929621566575952,0.0,H4C8S(NF)3
c1ccc2c(c1)[nH]sn2C(F)(F)F,3.827801697565155,2.815758314534469,0.0,H5C7SN2F3
CN(C)c1cn(C)c(cc1=c1ccn(C)cc1)C(=O)O,2.050659450936655,0.7042963772124495,0.0,H19C15N3O2
CCC1=CN(C)C=C[C]1[C]1C=CN(C)C=C1NC,1.583379303230322,-0.1216391704787382,0.0,H7C5N
CN1C=C[C]([C]2C=CN(C)C=C2N)C(=C1)F,1.79904718867474,0.0584970695250377,0.0,H14C12N3F
CN(C)n1c2=C[CH]C=Cc2ns1.[Cl],4.349651268750312,3.5673146628774703,0.0,H10C8SN3Cl
c1cc2c(cc1C(=O)O)n(O)s[nH]2,4.044660159966588,0.8851119902370557,0.0,H6C7SN2O3
CN(C)C1=Cc2c(=C[CH]1)[nH]sn2.[Cl],3.873883504014521,3.527354479004862,0.0,H10C8SN3Cl
Cn1ccc(=c2cc(C#N)n(C)cc2OCCOCCOC)cc1,2.177561399459228,0.5607203239720548,0.0,H23C18(NO)3
c1cc(c2c(c1)[nH]sn2N(=O)=O)C(Br)(Br)Br,3.013507852004841,4.281255999661516,0.0,H4C7SBr3N3O2
C#Cn1c2c(cccc2[nH]s1)NC,3.489114555284323,2.676373891974072,0.0,H9C9SN3
CN1C=C[C]([C]2C=CN(C)C=C2OCCOCCOC)C(=C1)O,1.7146054753553472,-0.009707523970428,0.0,H24C17(NO2)2
CN1C=C[C]([C]2C=CN(C)C=C2N)C(=C1)N,1.383983776353125,-0.0584439478465355,0.0,H4C3N
c1cc(C#N)c2c(c1)n(C(F)(F)F)s[nH]2,4.090185727634525,2.882291805244313,0.0,H4C8S(NF)3
c1cc(c2c(c1)[nH]sn2C(Cl)(Cl)Cl)N,3.961678152345121,4.368999183092091,0.0,H6C7S(NCl)3
c1ccc2c(c1)[nH]sn2C(Br)(Br)Br,3.826365418144269,2.8629095773445443,0.0,H5C7SBr3N2
CN1C=C[C]([C]2C=CN(C)C=C2F)C(=C1)C(Cl)(Cl)Cl,2.2262394059449435,3.3443381044940907,0.0,H12C13N2Cl3F
C=Cc1ccc2c(c1C(=O)C)[nH]s[nH]2,3.2019360864047486,2.448328873213177,0.0,H10C10SN2O
c1cc2c(cc1C(F)(F)F)n(F)s[nH]2,4.845612824579439,4.537286174295877,0.0,H4C7S(NF2)2
C=CC1=CN(C)C=C[C]1[C]1C=CN(C)C=C1C,1.8384484098984104,-0.1741749294109467,0.0,H18C15N2