smiles,IE,EA,charge,formula_pretty
C1=NC=C[C]([C]([C]O)c2ccncc2C)O1,3.492897136283864,1.7538833119993795,0.0,H5C6NO
[N]1[Si](F)([C]2[C]([Si]1(F)F)O[Mg]O2)F,5.414141377784835,4.181561979124671,1.0,MgSi2C2N(OF2)2
N([Si](C(F)(F)F)(F)F)([Si](F)(F)C(F)(F)F)[Mg],8.252812311940943,3.5419987384957494,1.0,MgSi2C2NF10
C=CC1=CCC(=CO1)c1ccccc1,4.129723726882366,0.2744940766566288,0.0,H12C13O
CCC1=CCC=C(c2ccccc2)O1,4.111838595852168,0.1817057937947539,0.0,H14C13O
c1ccc(cc1)C1=COC=C(C1)N,3.513963506662185,0.059870477048753,0.0,H11C11NO
c1ccc(cc1)C1=C(N)OC=CC1,3.5423614782863297,-0.1401971084182149,0.0,H11C11NO
C1C=C(N(=O)=O)OC(=C1)O,4.690570457448848,2.122851902669572,0.0,H5C5NO4
CNC1=CCC=C(OC)O1,3.71367118076123,-0.7979797408392186,0.0,H11C7NO2
CNC1=CCC(=CO1)F,3.668678822884977,-0.7273678024743275,0.0,H8C6NOF
Cn1c(ccc1F)C#N,4.9209380249700185,0.3473181427048986,0.0,H5C6N2F
C1=C[C@H](C=C1)O,4.857664497832593,0.3674101915772554,0.0,H6C5O
C#CC1=CSC=CC1,4.142990892870875,0.494645298820251,0.0,H6C7S
[N]1[P@](C(F)(F)F)(F)O[Mg]O[P@@]1(F)C(F)(F)F,7.056614202688797,1.2950599780466292,1.0,MgP2C2N(OF4)2
[N]1[P@](C(F)(F)F)(C)O[Mg]O[P@@]1(C)C(F)(F)F,5.950943212550191,1.0787771098781378,1.0,MgP2H6C4N(OF3)2
[N]1[Si@@](C(F)(F)F)(F)[C](O[Mg]O[C]([Si@@]1(C(F)(F)F)F)C)C,6.976145792244642,2.156736981823633,1.0,MgSi2H6C6N(OF4)2
S(=O)(=O)(C(F)(F)F)[N]S(=O)(=O)C(F)(F)F.C1(=O)OC[C@@H](O1)C,5.95264772274968,-0.8102032114678877,-1.0,H6C6S2NO7F6
C1[C@H](C[C@H](SC1)c1ccccc1)C,4.489311729024484,0.8188237339614717,0.0,H16C12S
COc1c(cc[nH]1)N(=O)=O,4.680947418220603,1.53853167726229,0.0,H6C5N2O3
C1=CSC=C(C#N)[C@@H]1F,5.260286036531033,1.0832735380005034,0.0,H4C6SNF
C1=C[C@H](C(=C1)F)O,4.818356811294143,0.5080420173359017,0.0,H5C5OF
C1C=C(C(=N)O)OC=C1F,4.886576327542207,0.609751893405337,0.0,H6C6NO2F
C1=CSC(=C(N)S1)N(=O)=O,4.179641263604571,1.713102783827344,0.0,H2C2SNO
c1cc2c(cc1C)C(=O)c1c(C2=O)cc(cc1)C(Cl)(Cl)Cl,5.730433031408756,2.345182816543093,0.0,H9C16Cl3O2
CO[C@@H]1CC[C@H](C1)C#N,5.781201144298029,-0.6617660023352072,0.0,H11C7NO
C1=COC(=C(C1)O)N(=O)=O,4.8973935655663805,1.7350127043806425,0.0,H5C5NO4
C1=COC(=C[C@@H]1O)O,4.769126128028438,-0.4656368755571747,0.0,H6C5O3
CNC1=C(CC=CO1)OC,3.038201831835613,-0.996591786665158,0.0,H11C7NO2
CNC1=COC(=CC1)NC,3.359007154720166,-0.7739207577073102,0.0,H12C7N2O
CNC1=COC=C(C1)NC,2.995459273082452,-0.7421503731515258,0.0,H12C7N2O
C1=COC(=C(C1)C#N)C(Cl)(Cl)Cl,5.147170496174658,2.908010424298118,0.0,H4C7NCl3O
C1C=C(F)OC=C1O,4.281786482849929,-0.4457131737730377,0.0,H5C5O2F
C1=CC(=CC1)F,4.862183794593511,-0.2490575951373101,0.0,H5C5F
C#CC1=CCC=CS1,4.218948385144904,0.5076401087841078,0.0,H6C7S
C1=CSC(=C(F)S1)O,3.931809764618811,0.4082944728994335,0.0,H3C4S2OF
C(#N)C1=CSC=C(N(=O)=O)S1,4.73477986761427,2.4587548088180484,0.0,H2C5S2(NO)2
c1cc2c(cc1C(Cl)(Cl)Cl)C(=O)c1c(C2=O)cc(cc1)C(Cl)(Cl)Cl,6.176272747464827,2.5025142787577352,0.0,H3C8Cl3O
c1cc2c(cc1)C(=O)c1c(C2=O)cc(cc1C)C#C,5.462380007492902,2.202114810724743,0.0,H10C17O2
P(c1ccccc1)(c1ccccc1)OC,4.272979006889363,0.3089561487155152,0.0,PH13C13O
CCOC(=O)OCC,6.767720349953015,-1.4303083005710504,0.0,H10C5O3
CCC1=CCC(=CO1)N(C)C,3.209006613476595,-0.8676322983304998,0.0,H15C9NO
C1C(=COC=C1O)N(=O)=O,4.679431455696976,1.8725449977006063,0.0,H5C5NO4
c1ccc(cc1)C1=COC(=CC1)N,3.7833735133150186,0.1212386838284147,0.0,H11C11NO
C1C=COC(=C1)O,4.215637380147745,-0.5440905687541089,0.0,H6C5O2
C#Cc1cc[nH]c1C(=O)O,5.10685300234727,0.8431044055192616,0.0,H5C7NO2
Cn1ccc(c2ccccc2)c1C(=N)O,4.357003983311733,0.3566882466817334,0.0,H12C12N2O
C1C=C(C#N)OC(=C1)N,3.959958017377722,0.5440204255806749,0.0,H6C6N2O
c1(cc2c(cc1)C(=O)c1c(C2=O)cc(cc1)C)O,5.247879637363075,2.097511121851858,0.0,H10(C5O)3
c1cc2c(cc1)C(=O)c1c(C2=O)cc(cc1C#C)C#C,5.504988337937538,2.3252580072527054,0.0,H4C9O
B(OCC(F)(F)F)(OCC(F)(F)F)OCC(F)(F)F,7.495909349615976,-0.2676236543251433,0.0,BH6C6(OF3)3
CCC1=CCC=C(N(C)C)O1,3.4394580682543165,-0.8531718614598502,0.0,H15C9NO
CNc1c(cc[nH]1)F,3.263378604753234,-0.7333094190238625,0.0,H7C5N2F
C1=COC(=C(C1)N(=O)=O)N,4.89529068886768,1.3586340103462136,0.0,H6C5N2O3
CN[C@@H]1C=COC(=C1)NC,3.592283529378256,-0.7273349039118329,0.0,H12C7N2O
C=Cc1ccc(C)[nH]1,3.7356597204503488,-0.1996602951952808,0.0,H9C7N
C1=COC(=C(C1)O)C(=O)O,4.566073108165801,0.656758173965136,0.0,H3C3O2
C1C=C(C(=C1)N)F,3.983844402978866,-0.4253169798525049,0.0,H6C5NF
C#C[C@@H]1C=CSC=C1F,4.504622611440572,-0.0280914369453966,0.0,H5C7SF
c1cc2c(cc1)C(=O)c1c(C2=O)cc(c(c1)C=C)C,5.062486593376525,2.1502325358938834,0.0,H12C17O2
c1cc2c(cc1OC)C(=O)c1c(C2=O)cc(cc1)OC,5.052520584585727,1.9985678906356044,0.0,H3C4O
c1cc2c(cc1C)C(=O)c1c(C2=O)cc(cc1)C,5.554195140522642,2.1148198722345115,0.0,H6C8O
C1[C@H]([C@H](CSC1)NC(=O)C)C,4.788913514382875,-0.5280352536268764,0.0,H15C8SNO
[N]1P(C(F)(F)F)(C(F)(F)F)O[Mg]OP1(C(F)(F)F)C(F)(F)F,7.07668308809807,1.988206794319558,1.0,MgP2C4N(OF6)2
c1cc2c(cc1)C(=O)c1c(C2=O)cc(c(c1)NC)NC,3.825215290909546,1.9776283253027944,0.0,H7C8NO
COC(=O)OC,6.900889444813947,-0.8664794499567505,0.0,H2CO
CNC1=C[C@@H](C=CO1)N(C)C,3.919721716872664,-0.953829782656976,0.0,H14C8N2O
C1C(=COC=C1N(=O)=O)N(=O)=O,6.015939175720268,2.4616332861383854,0.0,H4C5N2O5
C1=COC(=C(C1)N)N(=O)=O,4.434563061447625,1.5478698976581655,0.0,H6C5N2O3
CNC1=COC(=CC1)OC,3.492772701345166,-0.9957325110284728,0.0,H11C7NO2
CNc1ccc(c2ccccc2)n1C,3.077943611705996,-0.2856590985469665,0.0,H7C6N
Cn1cc(c(c1)C(Cl)(Cl)Cl)C(Cl)(Cl)Cl,5.18099917974323,2.953006610806915,0.0,H5C7NCl6
c1c[nH]c(c1F)C(=O)O,5.238340542533114,0.4208034617055092,0.0,H4C5NO2F
C#Cc1cc[nH]c1C#N,5.043370302335097,0.6079361566749868,0.0,H4C7N2
c1cc(C#N)[nH]c1C#N,5.539762298714413,0.934400350782744,0.0,HC2N
c1cc2c(cc1)C(=O)c1c(C2=O)cc(c(c1)C)C(Cl)(Cl)Cl,5.876019657620054,2.317217971236096,0.0,H9C16Cl3O2
C=C[C@@H]1C=COC=C1C#N,5.068595549054953,0.6047384027366207,0.0,H7C8NO
C1C=C(N(=O)=O)OC=C1O,4.482816464220013,2.099849567499041,0.0,H5C5NO4
C1=COC(=C[C@@H]1N)F,4.84007553109368,-0.2752696123701752,0.0,H6C5NOF
C1C=C(O)OC=C1O,4.0515126503829375,-0.4947800254907633,0.0,H6C5O3
CN[C@@H]1C=COC=C1OC,4.18978833421861,-0.7335900908423354,0.0,H11C7NO2
CN(C)C1=CCC=C(O)O1,3.556431042679469,-0.4595183278692274,0.0,H11C7NO2
Cn1cc(cc1C(=O)N)c1ccccc1,4.21724934987069,0.1746750742582663,0.0,H12C12N2O
Cn1cccc1c1ccccc1,3.960529524466984,-0.178421469949535,0.0,H11C11N
Cn1ccc(c1C(=N)O)N,3.958150950190975,-0.1338409726944518,0.0,H9C6N3O
CCC1=CCC(=CO1)c1ccccc1,4.057115784529378,0.132688447749024,0.0,H14C13O
CNc1ccc(C(=O)N)n1C,3.5052483017821943,-0.0553269817923136,0.0,H11C7N3O
C1C=C(C#N)SC(=C1)F,4.761925389045791,0.8848139847665153,0.0,H4C6SNF
COC1=C(CC=CS1)N(=O)=O,4.667359394641244,1.803776391132124,0.0,H7C6SNO3
C1C=C(C(=C1)O)O,4.237367876041025,-0.9424772848582506,0.0,H6C5O2
C1=C(CC(=C1)O)C(=O)O,4.578540491125386,0.6631711030455336,0.0,H2C2O
C(#N)C1=CSC(=CS1)N(=O)=O,4.7169769421831,2.4434447699473822,0.0,H2C5S2(NO)2
c1cc2c(cc1C#C)C(=O)c1c(C2=O)cc(cc1)C#C,5.498257746357558,2.373224944903632,0.0,H4C9O
N1=[Si](C(F)(F)F)O[Mg]O[Si]1C(F)(F)F,6.634553276898805,1.1750619004611509,1.0,MgSi2C2N(OF3)2
CN(C)c1cc[nH]c1OC,2.866118678431667,-0.7187705317322979,0.0,H12C7N2O
c1ccc(cc1)C1=C(CC=CO1)C#N,4.749431061736322,1.0250736859739846,0.0,H9C12NO
C#CC1=COC=C[C@H]1C(=O)O,4.853119150122074,0.7268402277746646,0.0,H6C8O3
CNC1=CCC=C(N(C)C)O1,3.4690980490737275,-0.9953561911974248,0.0,H14C8N2O
c1ccc(cc1)C1=COC=C(C1)c1ccccc1,4.061710426690842,0.3636126785509987,0.0,H14C17O
C1C=C(O)OC(=C1)O,4.181984754240693,-0.6954004564835485,0.0,H6C5O3
CN(C)C1=COC(=CC1)N,3.313188781679492,-0.7227813182802492,0.0,H12C7N2O
CNC1=COC=C[C@H]1OC,3.533196439302265,-1.1017523946014989,0.0,H11C7NO2
CN(C)c1cc[nH]c1N(C)C,2.7432181938344,-0.7022448926840297,0.0,H15C8N3
Cc1c[nH]cc1N(C)C,2.990044511119413,-0.7892671376324869,0.0,H12C7N2
C=Cc1cn(C)cc1NC,3.2390703490160377,-0.1681696164545427,0.0,H6C4N
CNc1cc(C#N)n(C)c1,3.622208288217371,0.0791246645017964,0.0,H9C7N3
C(#N)c1c[nH]cc1N,3.89619317068682,-0.5542492640783165,0.0,H5C5N3
c1c(c[nH]c1N)O,3.1336562534339465,-0.6502775928078335,0.0,H6C4N2O
C1C=C(C(=C1)N(=O)=O)N(=O)=O,6.189926130178355,1.9547242638924216,0.0,H4C5(NO2)2
C#CC1=CCC(=CO1)O,4.126119179083252,0.3873374895625603,0.0,H6C7O2
c1(cc2c(cc1)C(=O)c1c(C2=O)cc(cc1)C)NC(=O)C,5.062880559796758,2.1843278746870056,0.0,H13C17NO3
P(C1CCCCC1)(OC)OC,4.440638745765318,-0.912884081377706,0.0,PH17(C4O)2
C#CC1=COC=C[C@H]1c1ccccc1,4.579464695485148,0.2968348323334795,0.0,H10C13O
C1=COC(=C(C1)N(=O)=O)N(=O)=O,5.583574882553512,2.889776549445378,0.0,H4C5N2O5
CN(C)C1=CCC=C(c2ccccc2)O1,3.514059832241037,0.1804962532238279,0.0,H15C13NO
Cn1cc(cc1c1ccccc1)[C]([NH])O,4.303801085619488,-0.0279470450062944,0.0,H12C12N2O
Cn1cc(c(c1)N(=O)=O)F,5.204219186931004,1.6704787143204158,0.0,H5C5N2O2F
C1=C[C@H](C=C1)F,5.064850650248081,1.427129015862738,0.0,H5C5F
C1=CSC=C(C1)[C]([NH])O,4.389308524606895,0.652165376735502,0.0,H7C6SNO
c1cc2c(cc1)C(=O)c1c(C2=O)cc(c(c1)C(Cl)(Cl)Cl)C(Cl)(Cl)Cl,6.202028686902485,2.5491406938323053,0.0,H3C8Cl3O
c1c(c2c(cc1)ncc(n2)N(C)C)N(C)C,3.353137455136312,0.9256654366996372,0.0,H4C3N
c1cc2c3c(c1)N([O])OOc3c1c3c2OON(c3ccc1)[O],3.5959550443891204,3.0710889960770147,0.0,H3C7NO3
c1c(c2c(cc1)ncc(n2)C)C=C,4.684877193758075,1.2882469795054932,0.0,H10C11N2
c1c(c2c(cc1NC(=O)C)nccn2)NC(=O)C,4.719938697229372,1.6108524633214985,0.0,H6C6N2O
C#CC1=CCC(=CO1)C#N,4.968448864453967,0.7053026160916489,0.0,H5C8NO
c1ccc(cc1)C1=COC=CC1,4.1224753679758575,0.179659214730782,0.0,H10C11O
CN[C@@H]1C=COC(=C1)OC,4.4028831112060285,-0.7691595682666956,0.0,H11C7NO2
C#Cc1ccc(C(=O)N)n1C,4.543766402093388,0.5715872499818944,0.0,H8C8N2O
c1c[nH]c(c1N)O,3.2666616364491348,-0.6062779062180197,0.0,H6C4N2O
C1C=C(C(=O)O)OC(=C1)O,4.559567160169172,0.7992798758801656,0.0,H3C3O2
C=CC1=CSC(=CC1)C(Cl)(Cl)Cl,4.202779342756548,2.3553674551963923,0.0,H7C8SCl3
CC1=CCC=C1N(=O)=O,5.289829644345081,1.825046841058429,0.0,H7C6NO2
C1=CSC=C[C@@H]1C(Cl)(Cl)Cl,4.61520534883457,2.131572553511069,0.0,H5C6SCl3
c1cc2c(cc1)C(=O)c1c(C2=O)cc(c(c1)N)C,4.45473929575528,2.0015188863013464,0.0,H11C15NO2
N1([Si](F)(F)C(=O)C(F)(F)F)[Si](F)(F)[C](O[Mg]1)C(F)(F)F,6.66053631711984,2.987024530493364,1.0,MgSi2C4N(OF5)2
N([Si](C(F)(F)F)(OC)OC)([Si](OC)(OC)C(F)(F)F)[Mg],5.696290970679547,1.7214935963507745,1.0,MgSi2H12C6N(O2F3)2
CNC1=COC(=CC1)N(C)C,3.373419171655405,-0.9991117812245648,0.0,H14C8N2O
CN(C)C1=C[C@@H](C=CO1)OC,3.849406398917927,-0.9511759516284656,0.0,H13C8NO2
CN(C)C1=C(CC=CO1)O,3.1517694621212287,-0.4887799126285244,0.0,H11C7NO2
CN(C)C1=COC=C(C1)N,3.055440934680155,-0.7231105678660241,0.0,H12C7N2O
Cn1ccc(c1N(=O)=O)C(=O)O,5.877178691147128,2.42731437045004,0.0,H3C3NO2
CNc1ccn(C)c1OC,3.02989756863426,-0.9075192544445598,0.0,H12C7N2O
C1C=C(C#N)SC=C1F,4.613863433046936,0.8681817393204256,0.0,H4C6SNF
C1=CSC(=C(C1)C#N)N(=O)=O,4.987077298921212,2.7379067303460034,0.0,H4C6S(NO)2
C1C=C(F)OC=C1C#N,5.124806153674944,0.6274242885589048,0.0,H4C6NOF
c1(cc2c(cc1N(C)C)nccn2)C,4.036781465683452,1.0998074442246435,0.0,H13C11N3
c1cc2c(cc1)C(=O)c1c(C2=O)cc(cc1C)CC,5.480211409650655,2.05990627917854,0.0,H14C17O2
c1cc2c(cc1)C(=O)c1c(C2=O)c(c(cc1)C(=O)O)C,5.839040491742344,2.247112504750112,0.0,H5(C4O)2
C#CC1=CCC=C(C=C)O1,4.391779647519433,0.3457519724594022,0.0,H8C9O
C#C[C@@H]1C=COC=C1C(=O)O,5.28217382606781,0.8375620316724963,0.0,H6C8O3
CNC1=C(OC)OC=CC1,2.966862454266084,-0.822916459814587,0.0,H11C7NO2
CNC1=C(NC)OC=CC1,2.827321653326726,-0.7444062213638971,0.0,H12C7N2O
CNc1ccn(C)c1,3.1611205126861024,-0.989353618424866,0.0,H5C3N
Cn1cc(c(c1)C(=O)O)[C]([NH])O,5.219889439210965,0.5397994827922958,0.0,H8C7N2O3
Cn1ccc(c1C(=O)O)[C]([NH])O,5.2123434966248166,0.934104905901768,0.0,H8C7N2O3
CNc1cn(C)cc1NC,2.9910999468025694,-0.7955143132716329,0.0,H13C7N3
CCc1cc(cn1C)O,3.6819841283500874,-0.9095237013265433,0.0,H11C7NO
CCC1=C(CC=CO1)N(C)C,3.2502481977404387,-0.8387327283784543,0.0,H15C9NO
c1c(c[nH]c1C(=O)O)F,5.030617472318772,0.5099519008814242,0.0,H4C5NO2F
C1=CSC=C([C@@H]1C#N)F,4.717496978935378,0.2460096326918575,0.0,H4C6SNF
C1=CSC(=C(C1)C(=O)O)N,4.292541126529249,0.5353822697339639,0.0,H7C6SNO2
C#C[C@@H]1C=CSC(=C1)F,4.667994173637998,-0.0843171275577332,0.0,H5C7SF
c1(cc2c(cc1)C(=O)c1c(C2=O)cc(cc1)C)OC,5.102221978564193,2.064654447972862,0.0,H12C16O3
c1cc(c(cn1)[NH]=C)[C]1CC=NC(=C1)C,2.6961024037824246,1.485033068007033,0.0,H13(C4N)3
[BH4],4.52097466943062,-1.3972657021887698,-1.0,BH4
C=CC1=C(C(Cl)(Cl)Cl)OC=CC1,4.479823718125408,2.8929874519177248,0.0,H7C8Cl3O
C1=COC=C([C@@H]1N(=O)=O)N,4.145359837034993,1.6525202186781829,0.0,H6C5N2O3
CNC1=C[C@@H](C=CO1)OC,3.877302510992741,-1.0521408607750344,0.0,H11C7NO2
CN(C)C1=COC=C[C@H]1O,3.508174393589434,-0.8363204528053756,0.0,H11C7NO2
CN(C)C1=C(N)OC=CC1,2.980297476398482,-0.7335049736342625,0.0,H12C7N2O
CN(C)C1=C(CC=CO1)N,3.0115005389739964,-0.7360994158174434,0.0,H12C7N2O
c1cc([nH]c1N(=O)=O)N(=O)=O,6.294828589035751,2.798938169040048,0.0,H3C4N3O4
CN(C)c1cc(C#N)c[nH]1,3.5560347741808074,-0.5406201104928186,0.0,H9C7N3
CCc1cc(C#C)n(C)c1,4.105364629392716,0.0672130227190792,0.0,H11C9N
CN(C)c1c(ccn1C)O,3.081975555097961,-0.5130804484964755,0.0,H12C7N2O
Cn1cc(cc1N(=O)=O)c1ccccc1,4.602886050588131,1.754108984170307,0.0,H10C11(NO)2
C[C@@H]1C=COC(=C1)F,4.650551951419038,-0.4462380133376427,0.0,H7C6OF
C1=C(F)OC=C(F)O1,4.364765352991162,0.1951614285495453,0.0,HC2OF
C1=C(N)SC=C(O)S1,3.51566893117124,-0.0497446208195468,0.0,H5C4S2NO
c1(cc2c(cc1)C(=O)c1c(C2=O)cc(cc1)OC)OC,5.022425732827832,2.0192874464861235,0.0,H3C4O
C(F)(F)(F)[S@]1(N=[Si](O[Mg]O1)C(F)(F)F)[O],6.869860012638673,1.342540950304829,1.0,MgSiC2SN(OF2)3
[Cl].[Mg].C1OCCC1.C1OCCC1.C1OCCC1,6.115131448242755,-0.1043735827974159,1.0,MgH24C12ClO3
c1cc2c(c(c1)C)C(=O)c1c(C2=O)c(ccc1)NC,4.285797473484854,1.8836682250126613,0.0,H13C16NO2
[N]1[Si@](C(F)(F)F)([C](O[Mg]O[C]([Si@]1(C(F)(F)F)C(=O)C)C)C)C(=O)C,5.223387859886861,2.061133267686819,1.0,MgSi2H12C10N(O2F3)2
C=CC1=C(C#C)OC=CC1,4.269237117792363,0.8149657991958521,0.0,H8C9O
c1ccc(cc1)C1=C[C@@H](C=CO1)N,4.461577045765443,0.2744367830870033,0.0,H11C11NO
c1ccc(cc1)C1=C(c2ccccc2)OC=CC1,4.032235355023294,0.5717182619097003,0.0,H14C17O
C1C(=COC=C1O)O,3.829286671767113,-0.6408553137265698,0.0,H6C5O3
c1c(c(c[nH]1)F)C(=N)O,5.031024130120931,-0.2004230520527925,0.0,H5C5N2OF
c1c[nH]c(c1F)F,4.528555194977889,-0.7292151316236413,0.0,H3C4NF2
C#C[C@@H]1C=COC(=C1)N,4.011827100126174,-0.218113776793325,0.0,H7C7NO
COc1cccc(c1)F,5.030347792258544,-0.5752264048936921,0.0,H7C7OF
CN[C@@H]1C=CSC(=C1)F,4.421441821946791,-0.0456428475612482,0.0,H8C6SNF
C#CC1=C(C=C)OC=CC1,4.280986544357438,0.796836772531242,0.0,H8C9O
Cc1c(ccn1C)NC,2.9059717018404627,-0.792535284436235,0.0,H12C7N2
CNC1=C(CC=CO1)N(C)C,2.8520001308294014,-0.8638141248397004,0.0,H14C8N2O
c1ccc(cc1)C1=C(CC=CO1)N,3.386098272426898,-0.0723183739668456,0.0,H11C11NO
C1=COC=C([C@@H]1O)O,4.490902639861451,-0.5203484349734935,0.0,H6C5O3
c1ccc(cc1)[C@@H]1C=COC=C1N,3.5905064872327785,-0.4002099085559165,0.0,H11C11NO
CN(C)[C@@H]1C=COC=C1N,3.625845995805866,-0.8001632720792258,0.0,H12C7N2O
C#Cc1cc(cn1C)C(=N)O,4.597888371544832,0.244200467510018,0.0,H8C8N2O
C=Cc1cc(c[nH]1)C(=N)O,4.29911764180506,0.1237486101759715,0.0,H8C7N2O
CN(C)c1c(ccn1C)OC,3.025956570321432,-0.9045269238617036,0.0,H14C8N2O
C1=COC=C([C@@H]1O)F,5.070960691789514,-0.1033609111458644,0.0,H5C5O2F
C1=CC(=C(C1)C#N)C(Cl)(Cl)Cl,5.55157973680034,2.895885736624769,0.0,H4C7NCl3
C1=CSC(=CS1)N(=O)=O,4.27908832447938,2.2528453718819947,0.0,H3C4S2NO2
[N]1[P@](C(F)(F)F)(C(=O)C)O[Mg]O[P@@]1(C(=O)C)C(F)(F)F,5.41784874106961,2.3356367229513126,1.0,MgP2H6C6N(O2F3)2
[B](F)(F)(F)F.COCCOCCOC,5.243421019463858,-1.2442875715918489,-1.0,BH14C6O3F4
C=CC1=C[C@@H](C=CO1)C(Cl)(Cl)Cl,4.830312878418772,2.1501651060840232,0.0,H7C8Cl3O
C#CC1=COC=C(C=C)C1,4.3037085805004605,0.3128535154970451,0.0,H8C9O
c1ccc(cc1)C1=COC=C[C@H]1N,4.270483543392038,0.1356827394480206,0.0,H11C11NO
C1=COC(=C(C1)N)F,3.5926023107418588,-0.6984692230184009,0.0,H6C5NOF
c1ccc(cc1)[C@@H]1C=COC(=C1)N,3.8727711570660177,-0.4678923673021926,0.0,H11C11NO
CN(C)C1=COC(=CC1)O,3.347674209271281,-0.4702539779995276,0.0,H11C7NO2
CN(C)C1=C(O)OC=CC1,3.4205983370189643,-0.9780158892139296,0.0,H11C7NO2
C=Cc1c(C)ccn1C,3.784226984765701,-0.2209143669773765,0.0,H11C8N
C1C(=COC=C1O)C(=O)O,4.411043383448122,0.7071838533498522,0.0,H3C3O2
Cc1cc(c[nH]1)O,3.7670856252094382,-0.5609585817932383,0.0,H7C5NO
CC1=C(C#N)OC=CC1,4.7263510489498,0.4740229365903361,0.0,H7C7NO
C1=CCC(=C1)C#N,5.285271029854448,0.7653540199740747,0.0,H5C6N
C=Cc1cc(cn1C)OC,3.5858356668009947,-0.0323164233454007,0.0,H11C8NO
CCc1cc[nH]c1OC,3.4852580219045195,-0.7429420965276221,0.0,H11C7NO
C=Cc1ccn(C)c1OC,3.6805530190864375,-0.435557398232413,0.0,H11C8NO
Cn1ccc(c2ccccc2)c1C#N,4.584179241893798,0.5004319166033384,0.0,H5C6N
CN(C)c1cc(C#N)cn1C,3.710761927357089,-0.322857737621598,0.0,H11C8N3
Cn1cc(C#N)c(c1)c1ccccc1,4.439871599711841,0.0967637801310048,0.0,H5C6N
C=Cc1ccn(C)c1C,3.863975643230879,-0.5209291177419799,0.0,H11C8N
Cn1cc(c(c1)OC)C(=N)O,4.558470516909074,-0.2951174216035723,0.0,H10C7(NO)2
CN(C)c1cc(C#N)n(C)c1,3.501692122219174,0.0581861930691958,0.0,H11C8N3
CCc1ccc[nH]1,4.106015819576532,-0.9255604882195256,0.0,H9C6N
CNc1cc(cn1C)OC,2.917714779297603,-0.7237026712486112,0.0,H12C7N2O
CCc1cc(cn1C)N(=O)=O,5.096241428190842,1.4073817528475048,0.0,H10C7(NO)2
CNc1cc(cn1C)C(=O)O,3.6152154387651536,-0.0384140101035881,0.0,H10C7(NO)2
CN(C)c1cn(C)cc1F,3.186998723772922,-0.759553696696821,0.0,H11C7N2F
CN(C)c1cn(C)cc1[C]([NH])O,3.556804875391754,-0.1577520810064014,0.0,H13C8N3O
c1ccc(cc1)c1c(cc[nH]1)C#N,4.486430761855081,0.5250749431139412,0.0,H8C11N2
Cn1c(ccc1O)C(=O)O,4.331034820892091,0.1243498756335612,0.0,H7C6NO3
COc1ccc(N)[nH]1,2.922798872623025,-0.6466433465051522,0.0,H8C5N2O
Cc1c(ccn1C)[C]([NH])O,4.488186883887101,-0.3587536999479197,0.0,H10C7N2O
C=Cc1c[nH]cc1N,3.498786398129232,-0.3383949888178903,0.0,H4C3N
c1ccc(cc1)c1cc(c[nH]1)F,4.086257410622784,0.0648460187236197,0.0,H8C10NF
C#Cc1c(ccn1C)O,3.980384969213992,-0.641503712020858,0.0,H7C7NO
CNc1ccn(C)c1C(=N)O,3.85833832614444,-0.0524352117030502,0.0,H11C7N3O
c1c[nH]cc1F,4.544754403903061,-0.7484775695669668,0.0,H4C4NF
CCc1ccc(CC)n1C,3.7904335095787247,-0.899380263425337,0.0,H15C9N
C=Cc1cn(C)cc1CC,3.9014286028428615,-0.257911908708047,0.0,H13C9N
C=Cc1cc(CC)n(C)c1,3.8794091210926127,-0.5183649074064305,0.0,H13C9N
CN(C)c1cc(c2ccccc2)n(C)c1,3.1015858715341893,-0.1693540245891198,0.0,H16C13N2
C=Cc1ccc(N)n1C,3.07855593586246,-0.2044638228275288,0.0,H10C7N2
C=Cc1cc(c[nH]1)O,3.753368929881253,-0.11576554429339,0.0,H7C6NO
c1c(c(c[nH]1)C(=O)O)C(=O)O,5.529255267747066,0.8158434452376242,0.0,H5C6NO4
CCc1ccc([nH]1)OC,3.551512759198522,-0.8446169697257573,0.0,H11C7NO
CNc1cn(C)cc1C(=O)O,4.015070090270092,-0.2377176060403143,0.0,H10C7(NO)2
C#Cc1cc(C#C)n(C)c1,4.344541920534175,0.172458562824977,0.0,H7C9N
c1cc(C(=O)O)[nH]c1C(=O)O,5.395319867664147,1.177435383487682,0.0,H5C6NO4
C#Cc1cc(C)[nH]c1,4.247562972992091,-0.8129804651820449,0.0,H7C7N
CCc1c(cc[nH]1)N,3.245262364720111,-0.7293793686516437,0.0,H5C3N
C=Cc1cn(C)cc1O,3.987753452774632,-0.2556750812549579,0.0,H9C7NO
CN(C)c1ccc(n1C)N(=O)=O,4.056812255148179,1.5580966731464287,0.0,H11C7N3O2
c1c(c[nH]c1N(=O)=O)C(=O)O,5.858157506606949,2.0995367726442056,0.0,H4C5(NO2)2
C#CC1=C[C@@H](C=CO1)C(=N)O,4.958898629277973,0.716899686117904,0.0,H7C8NO2
C=CC1=CCC(=CO1)C(=O)O,4.761296825128374,0.7144843220517942,0.0,H8C8O3
C=Cc1cc[nH]c1N(=O)=O,5.023755702822745,1.9309054676356028,0.0,H3C3NO
COc1ccc(C#N)[nH]1,4.386786236130865,-0.1133457638210528,0.0,H6C6N2O
C=CC1=COC=C[C@H]1C(=O)O,4.635692674571692,0.7024950870050817,0.0,H8C8O3
CCC1=COC(=CC1)C(Cl)(Cl)Cl,4.557824880570115,2.4862233039108106,0.0,H9C8Cl3O
CC[C@@H]1C=COC=C1C#N,4.932723582811013,0.4712725677360141,0.0,H9C8NO
C#C[C@@H]1C=COC=C1OC,4.194120892661521,-0.0592925457425734,0.0,H4C4O
CC[C@@H]1C=COC(=C1)C(Cl)(Cl)Cl,4.742481187212979,2.4497510304951,0.0,H9C8Cl3O
COc1cc[nH]c1C(=O)O,4.6321453332653615,0.1853536973281735,0.0,H7C6NO3
C#CC1=CCC=C(c2ccccc2)O1,4.295727593185438,0.3184178570933,0.0,H10C13O
C#CC1=C[C@@H](C=CO1)OC,4.97816346454565,0.5646006564253185,0.0,H4C4O