smiles,IE,EA,charge,formula_pretty
CC(=O)c1cccc2c1ON(C(=O)O)O2,4.776096985240292,1.217641321528936,0.0,H7C9NO5
c1cc2c(c(c1F)Cl)ONO2,4.672293028060812,1.4108088157132443,0.0,H3C6NClO2F
c1ccc(cc1)c1ccc2c(c1Cl)ONO2,4.512426060811412,0.3498986145619711,0.0,H8C12NClO2
C=Cc1cccc2c1ONO2,4.437609419408181,0.5599349462878309,0.0,H7C8NO2
COc1ccc(c2c1ONO2)Cl,4.613825658206769,1.190171532923705,0.0,H6C7NClO3
C#Cc1cc(CC)c2c(c1)ONO2,4.40706450224352,0.4397482285163279,0.0,H9C10NO2
CCc1ccc(c2c1ONO2)F,4.57386094363901,0.1267853244222352,0.0,H8C8NO2F
C=Cc1cc(c2c(c1)ONO2)Cl,4.467872140912368,0.6167464816695429,0.0,H6C8NClO2
c1cc(c2c(c1C(F)(F)F)ONO2)Cl,4.886024529654241,1.2948491823277437,0.0,H3C7NClO2F3
C=Cc1ccc(C)c2c1ONO2,4.383694040594127,0.4571625971599133,0.0,H9C9NO2
c1cc(c2c(c1N)ONO2)N,3.485911149540334,-0.3511174073923029,0.0,H7C6N3O2
c1cc(c2c(c1C(F)(F)F)ONO2)C(F)(F)F,4.990355949577497,1.07275680889652,0.0,H3C8N(OF3)2
C=Cc1c(ccc2c1ONO2)N,3.784389744214059,0.4597731239933638,0.0,H4C4NO
C=Cc1c(ccc2c1ONO2)O,4.206706405324075,0.4930372502509272,0.0,H7C8NO3
C=Cc1c(ccc2c1ONO2)NC,3.675512847655773,0.4457241803844227,0.0,H10C9(NO)2
C=Cc1ccc(CC)c2c1ONO2,4.382460856053148,0.4664730565051287,0.0,H11C10NO2
C=Cc1c(ccc2c1ONO2)C(F)(F)F,4.713496962654608,0.8492938388604672,0.0,H6C9NO2F3
C=Cc1ccc(c2c1ONO2)N(=O)=O,4.816611358871887,2.183533245142462,0.0,H3C4NO2
c1cc(c2c(c1Cl)ONO2)N(=O)=O,5.015749836138275,2.217312700585899,0.0,H3C6N2ClO4
c1cc(C#N)c2c(c1)ON(C(=O)O)O2,4.971620373010955,1.0403903725797137,0.0,H2C4NO2
C=Cc1cccc2c1ON(CC)O2,4.191767377351061,0.4657699497216527,0.0,H11C10NO2
CCc1c(ccc2c1ONO2)F,4.438827822724852,-0.0114779156523581,0.0,H8C8NO2F
c1c(cc2c(c1F)ONO2)N(=O)=O,5.078537677132408,2.212189167080942,0.0,H3C6N2O4F
COc1c(ccc2c1ONO2)N(=O)=O,4.7720601818888095,1.9824514668995108,0.0,H6C7N2O5
c1cc(c2c(c1F)ONO2)N(=O)=O,5.047398022522975,2.1667010531688,0.0,H3C6N2O4F
Cc1cccc2c1ON(C(Cl)(Cl)Cl)O2,4.648706752917496,2.292199950084614,0.0,H6C8NCl3O2
CCc1c(ccc2c1ONO2)N(=O)=O,4.794345951520517,1.9391849583931615,0.0,H4C4NO2
C#Cc1cccc2c1ON(O)O2,4.5121098155465,0.585157403843914,0.0,H5C8NO3
c1cc2c(c(c1C(=O)O)O)ONO2,4.702704764547525,0.7864792599517387,0.0,H5C7NO5
COc1cccc2c1ON(C(Br)(Br)Br)O2,4.651411363150691,4.859994160674978,0.0,H6C8Br3NO3
c1cc(c2c(c1)ONO2)F,4.636878511305985,0.2212494040300954,0.0,H4C6NO2F
CCc1c(ccc2c1ONO2)C(F)(F)F,4.6663969987399465,0.3238483622204513,0.0,H8C9NO2F3
CCc1ccc(c2c1ONO2)C(F)(F)F,4.646343958529178,0.4112856461775664,0.0,H8C9NO2F3
c1cc2c(c(c1C(Br)(Br)Br)F)ONO2,4.8687481145840135,2.7801701047807,0.0,H3C7Br3NO2F
C#Cc1ccc(c2c1ONO2)N(=O)=O,4.944706123858486,2.2887646489267355,0.0,H2C4NO2
CN[N]Oc1cccc(c1[O])F,3.4515334191652074,2.911141537549702,0.0,H7C7N2O2F
Cc1cc(c2c(c1)ONO2)F,4.511557176828864,0.1918153861748579,0.0,H6C7NO2F
C#Cc1ccc(c2c1ONO2)OC,4.580236032093671,0.4818438094058366,0.0,H7C9NO3
CN(C)c1ccc2c(c1F)ONO2,3.820119308927679,0.148258415194141,0.0,H9C8N2O2F
C#Cc1c(ccc2c1ONO2)C(Cl)(Cl)Cl,4.790146089393238,2.928631744319864,0.0,H4C9NCl3O2
Cc1ccc2c(c1OC)ONO2,4.339906322514798,-0.1409544175570771,0.0,H9C8NO3
Cc1cc(cc2c1ONO2)C(F)(F)F,4.655531063229864,0.3702963604206162,0.0,H6C8NO2F3
c1cc(c2c(c1)ON(C(=O)O)O2)O,4.651665569139004,0.7389762328653888,0.0,H5C7NO5
C#Cc1cccc2c1ONO2,4.559602964903752,0.6178219626359351,0.0,H5C8NO2
C#Cc1cc(cc2c1ONO2)C(Cl)(Cl)Cl,4.776277089231007,2.759237589934492,0.0,H4C9NCl3O2
C=Cc1cccc2c1ON(C(F)(F)F)O2,4.801820099606266,0.6370576953246201,0.0,H6C9NO2F3
C#Cc1cccc2c1ON(C)O2,4.343688209628089,0.5334136186316756,0.0,H7C9NO2
c1cc(c2c(c1)ON(O)O2)F,4.541171432008559,0.1577903398225317,0.0,H4C6NO3F
C#Cc1cccc2c1ON(C(=O)O)O2,4.764569775002746,0.7201523226991413,0.0,H5C9NO4
C=Cc1cccc(c1[O])O[N]N(C)C,3.288897162981448,2.348299241095083,0.0,H6C5NO
CCc1cccc2c1ON(C#N)O2,4.757292680876708,4.301339149250998,0.0,H8C9(NO)2
C=Cc1c(ccc2c1ONO2)OC,4.167866715486161,0.480301168843289,0.0,H9C9NO3
C=Cc1c(ccc2c1ONO2)N(C)C,3.7388940519282183,0.4519880014937372,0.0,H6C5NO
CON1Oc2cccc(c2O1)F,4.431095016834297,0.1871764955772961,0.0,H6C7NO3F
Cc1cc(c2c(c1)ONO2)OC,4.3112227565303325,-0.1829094053904554,0.0,H9C8NO3
C#Cc1c(ccc2c1ONO2)C(=O)O,4.766386140317627,1.1984142828710902,0.0,H5C9NO4
c1cc(c2c(c1)ON(C(Br)(Br)Br)O2)C(F)(F)F,4.975850115960929,4.893905191327212,0.0,H3C8Br3NO2F3
C#Cc1cc(cc2c1ONO2)C(Br)(Br)Br,4.725530748191522,2.8856662889535074,0.0,H4C9Br3NO2
CN(C)c1cccc2c1ON(O)O2,3.909925890796876,-0.5690654108788293,0.0,H10C8N2O3
C#Cc1c(ccc2c1ONO2)OC,4.285046907325159,0.6476551742140146,0.0,H7C9NO3
c1cc(c2c(c1)ON(C(F)(F)F)O2)F,5.02121307655907,3.5000454525303213,0.0,H3C7N(OF2)2
CN(C)c1cccc2c1ON(C(=O)O)O2,4.012252449430525,0.6962786654090451,0.0,H10C9(NO2)2
c1c(cc2c(c1F)ONO2)C(F)(F)F,4.913624538335716,0.6451079492268037,0.0,H3C7N(OF2)2
CCc1cccc2c1ON(O)O2,4.672010127632893,-0.3629052618711283,0.0,H9C8NO3
CCc1cc(cc2c1ONO2)C(Br)(Br)Br,4.550733806152129,2.848620525962906,0.0,H8C9Br3NO2
COCCOc1ccc(c2c1ONO2)F,4.663497625793388,0.1538809320059955,0.0,H10C9NO4F
COc1c(ccc2c1ONO2)C#N,4.72821549133514,0.6566178611879878,0.0,H6C8N2O3
Cc1ccc(c2c1ONO2)F,4.5737228377071,0.1054831347442815,0.0,H6C7NO2F
CCc1c(ccc2c1ONO2)C(=O)O,4.606543666029756,0.8052671667370306,0.0,H9C9NO4
Cc1cc(cc2c1ONO2)N(=O)=O,4.839748760468501,2.0511347304105585,0.0,H6C7(NO2)2
c1c(cc2c(c1F)ONO2)C(Cl)(Cl)Cl,4.843612450438377,2.76363459853892,0.0,H3C7NCl3O2F
C#Cc1ccc(c2ccccc2)c2c1ONO2,4.563844370653532,0.8274174073572795,0.0,H9C14NO2
Cc1ccc(c2c1ONO2)C(F)(F)F,4.645519459039496,0.3997876283116057,0.0,H6C8NO2F3
COc1c(ccc2c1ONO2)N,3.742513514289021,-0.2319445912238733,0.0,H8C7N2O3
COc1c(ccc2c1ONO2)O,4.272572936848155,-0.1883343104149388,0.0,H7C7NO4
C#Cc1c(ccc2c1ONO2)c1ccccc1,4.441631670111383,0.6671725855499973,0.0,H9C14NO2
CNc1c(ccc2c1ONO2)C#N,4.309974423414678,0.5413766409961682,0.0,H7C8N3O2
Cc1c(ccc2c1ONO2)O,4.142876784649706,-0.2286616656514524,0.0,H7C7NO3
c1cc2c(c(c1C(F)(F)F)N(=O)=O)ONO2,5.122923830685613,2.3063232188629628,0.0,H3C7N2O4F3
c1cc(c2c(c1)ON(N(=O)=O)O2)F,4.601276818326005,3.2930729076666467,0.0,H3C6N2O4F
CNc1cccc2c1ON(C#N)O2,4.169237380103004,4.096899282163212,0.0,H7C8N3O2
CN(C)c1ccc2c(c1OC)ONO2,3.661759392468957,-0.1016715223144273,0.0,H12C9N2O3
COc1cc(cc2c1ONO2)C(F)(F)F,4.712070438506634,0.4370814856862126,0.0,H6C8N(OF)3
c1cc(c2c(c1)ON(O)O2)N(=O)=O,5.178901007891545,2.10194832167108,0.0,H4C6N2O5
COc1cccc2c1ON(C(F)(F)F)O2,4.778357832188339,3.304836527682346,0.0,H6C8N(OF)3
CNc1cccc2c1ON(C(=O)O)O2,4.174412862864847,0.6919212221597264,0.0,H4C4NO2
c1ccc(cc1)c1cccc2c1ONO2,4.432860654685646,0.4430727194718202,0.0,H9C12NO2
Cc1ccc(c2c1ONO2)OC,4.386900121212966,-0.2037188785401666,0.0,H9C8NO3
C#Cc1cccc(c1[O])O[N]N(C)C,3.48589571524426,2.416440380367567,0.0,H5C5NO
c1cc2c(c(c1O)N(=O)=O)ONO2,4.588270658490364,1.990961312907166,0.0,H4C6N2O5
CNc1ccc2c(c1OC)ONO2,3.6147646685836654,-0.1303684463659009,0.0,H10C8N2O3
COc1cc(cc2c1ONO2)C(Cl)(Cl)Cl,4.679110053884505,2.7032461594004418,0.0,H6C8N(ClO)3
CNc1cccc2c1ON(O)O2,4.039397124580864,4.257919973997195,0.0,H8C7N2O3
c1ccc(cc1)c1c(ccc2c1ONO2)C#N,4.756151419112575,0.9038212506762648,0.0,H8C13(NO)2
FC(F)(F)C(=O)O,7.679280247646238,1.0262287901728997,0.0,HC2O2F3
c1cc2c(c(c1C#N)N(=O)=O)ONO2,5.1440844422482765,2.484389644008479,0.0,H3C7N3O4
Cc1ccc(c2c1ONO2)N(=O)=O,4.787143359442416,2.075345544902666,0.0,H6C7(NO2)2
c1cc2c(c(c1C(Cl)(Cl)Cl)N(=O)=O)ONO2,5.063876199843071,2.23157810530538,0.0,H3C7N2Cl3O4
CN(C)[N]Oc1cccc(c1[O])OC,3.1682772154868872,2.3115481419859862,0.0,H12C9N2O3
CC(C)(C)c1cccc2c1ONO2,4.348885905035422,-0.2451402375321776,0.0,H13C10NO2
c1cc(c2c(c1)ON(C(F)(F)F)O2)N(=O)=O,5.253965359961148,2.2367332693262143,0.0,H3C7N2O4F3
CN1C=C[C]([C]2C=CN(C)C=C2OC)C(=C1)C(F)(F)F,2.050225067455904,-0.0415005592825763,0.0,H15C14N2OF3
Cn1ccc(=c2ccn(cc2)CO)cc1OCCOCCOC,1.8691505626025904,-0.3282831596610776,0.0,H24C17(NO2)2
CN1C=C[C]([C]2C=CN(C)C(=C2)OCCOC)C(=C1)O,1.6800933452301252,-0.071390838571824,0.0,H20C15N2O3
CC(=O)c1c(c(=c2ccn(C)cc2)ccn1C)OC,2.141952187973948,0.791727456975059,0.0,H18C15(NO)2
C=CC1=C[C](C=CN1C)[C]1C=CN(C)C=C1N,1.718332362810179,0.4019268458119769,0.0,H17C14N3
CN1C=C[C]([C]2C=CN(C)C(=C2)F)C(=C1)O,1.9596529694914355,0.0499246155646688,0.0,H13C12N2OF
CN1C=C[C]([C]2C=CN(C)C=C2Cl)[C]([CH]1)C(F)(F)F,2.171990040050878,0.1664646813602304,0.0,H12C13N2ClF3
CN1C=C[C]([C]2C=CN(C)C=C2OCCOCCOCCOC)C(=C1)N(=O)=O,2.384484686293581,1.1179210556379986,0.0,H27C19(NO2)3
CN(C)C1=CN(C)C=C[C]1[C]1C=CN(C)C=C1C#N,2.045193598221522,0.2286478500442172,0.0,H18C15N4
CC1=C[C](C=CN1C)[C]1C=CN(C)C=C1O,1.7737663926360256,-0.1758129703652229,0.0,H16C13N2O
CN1C=C[C]([C]2C=CN(C)C=C2OCCOCCOCCOC)C(=C1)C(F)(F)F,2.045792629623611,-0.053685278186458,0.0,H27C20N2O4F3
CN1C=C[C@H]([C@H]2C=CN(C)C(=C2)C(=O)O)C(=C1)N,2.0191494140177384,0.733739894565224,0.0,H15C13N3O2
C=CC1=CN(C)C=C[C]1[C]1C=CN(C)C=C1Cl,2.0248296162440966,0.0133422705708654,0.0,H15C14N2Cl
CNC1=CN(C)C=C[C]1[C]1C=CN(C)C=C1N(C)C,1.5731075173986029,-0.1402535557157533,0.0,H22C15N4
CN1C=C[C@H]([C@H]2C=CN(C)C=C2C(=O)O)C(=C1)C(=O)O,2.34308189362273,0.4225976524663566,0.0,H7C7NO2
CN1C=C[C@@H](C(=C1)C#N)[C@H]1C=CN(C)C=C1C(=O)O,2.448085510915553,0.546238000982703,0.0,H13C14N3O2
CCC1=CN(C)C=C[C]1[C]1C=CN(C)C(=C1)N(=O)=O,2.422022618889605,1.5496374430345896,0.0,H17C14N3O2
CCC1=CN(C)C=C[C]1[C]1C=CN(C)[CH][C]1C(C)(C)C,1.682357911971485,-0.2012333499209488,0.0,H13C9N
CN1C=C[C@H]([C@@H]2C=CN(C)C=C2OC)C(=C1)C(=O)O,2.0927252816232795,0.2858131633489393,0.0,H16C14N2O3
Cn1ccc(=c2c(cn(C)cc2Cl)C(=O)O)cc1,2.366919501271332,0.4859199985090527,0.0,H13C13N2ClO2
Cn1ccc(=c2cc(n(C)cc2Cl)OCCOC)cc1,1.8313216559487049,0.0852294269076083,0.0,H19C15N2ClO2
CC(C)(C)[C]1[CH]N(C)C=C[C]1[C]1C=CN(C)C=C1C#N,2.036342399010755,0.3627123463753379,0.0,H21C17N3
Cn1ccc(=c2c(C#N)cn(C)cc2OCCOC)cc1,2.2484912837986486,0.2529141539940611,0.0,H19C16N3O2
CNC1=CN(C)C=C[C]1[C]1C=CN(C)C=C1OCCOC,1.6610985883904503,-0.1416732443598447,0.0,H23C16N3O2
CC(C)(C)[C@H]1CN(C)C=C[C@@H]1[C@@H]1C=CN(C)C=C1C(=O)O,1.9242673104068675,0.3736986949894345,0.0,H22C17(NO)2
Cn1ccc(=c2cc(C(F)(F)F)n(C)cc2Cl)cc1,2.2501740004096065,0.5462155270957738,0.0,H12C13N2ClF3
Cn1ccc(=c2c(C#N)cn(C)cc2Cl)cc1,2.376294631188648,1.645568003981316,0.0,H12C13N3Cl
C#Cc1cn(C)c(cc1=c1ccn(C)cc1)N(C)C,1.9056798780453392,-0.0932567175026632,0.0,H19C16N3
CN(C)c1cn(C)c(cc1=c1ccn(C)cc1)O,1.7545709518359218,-0.3099295220730709,0.0,H19C14N3O
C#Cc1cn(C)cc(c1=c1ccn(C)cc1)O,1.9645918628717485,-0.0763235903454186,0.0,H14C14N2O
CN1C=C[C]([C]2C=CN(C)C=C2O)C(=C1)O,1.821741632474732,-0.0077427423260814,0.0,H7C6NO
CCC1=CN(C)C=C[C]1[C]1C=CN(C)C(=C1)N(C)C,1.7100573700969108,-0.2756275128180276,0.0,H23C16N3
CC(=O)C1=CN(C)C=C[C]1[C]1C=CN(C)C=C1C#N,2.437742044863262,0.460317885013501,0.0,H15C15N3O
CCC1=CN(C)C=C[C]1[C]1C=CN(C)C=C1C#N,2.071698345983896,0.3387960842279427,0.0,H17(C5N)3
C#CC1=CN(C)C=C[C]1[C]1C=CN(C)C=C1NC,1.7953506555109926,0.2556007094295638,0.0,H17(C5N)3
C#Cc1cn(C)c(cc1=c1ccn(C)cc1)C(=O)O,2.252155636777025,0.8709622719958134,0.0,H14C15(NO)2
Cn1ccc(=c2cc(n(C)cc2OC)O)cc1,1.813315456028795,-0.2311598829386638,0.0,H16C13(NO)2
C=Cc1cn(C)c(cc1=c1ccn(C)cc1)OCCOC,1.791849747709057,-0.1903719723108223,0.0,H22C17(NO)2
C#CC1=CN(C)C=C[C]1[C]1C=CN(C)C=C1O,1.9553661778714744,0.3939262608560967,0.0,H14C14N2O
CC(C)(C)c1cn(C)c(cc1=c1ccn(C)cc1)O,1.7646515504835407,-0.3325603946381306,0.0,H22C16N2O
CN(C)c1cn(C)cc(C#N)c1=c1ccn(C)cc1,2.228743481840502,-0.0561818872796719,0.0,H18C15N4
CN1C=C[C@@H]([C@@H]2C=CN(C)C=C2O)C(=C1)C(=O)O,2.104906305224722,0.5972756480565296,0.0,H14C13N2O3
CC(C)(C)c1cn(C)c(cc1=c1ccn(C)cc1)Cl,1.9815747242733777,1.3115314531911282,0.0,H21C16N2Cl
CN(C)c1cc(=c2ccn(C)cc2)c(cn1C)Cl,1.9657195652049269,0.0109548498781806,0.0,H18C14N3Cl
CCc1cn(C)c(cc1=c1ccn(C)cc1)NC,1.5975517865204891,-0.7550254666370164,0.0,H7C5N
Cn1ccc(=c2c(cn(C)cc2O)N)cc1,1.6271953401934298,-0.0332527806662255,0.0,H15C12N3O
C#CCn1ccc(=c2ccn(cc2)CNC)cc1,1.9608383572318415,-0.4940830031686345,0.0,H17(C5N)3
Cn1ccc(=c2cc(n(C)cc2C#N)OCCOCCOC)cc1,2.0320600646169624,0.3599150732639828,0.0,H23C18(NO)3
C#Cc1cn(C)cc(C#N)c1=c1ccn(C)cc1,2.3324893590448483,0.592580985013774,0.0,H13(C5N)3
Cn1ccc(=c2cc(n(C)cc2C#N)O)cc1,2.093841019109823,0.3500777960813139,0.0,H13C13N3O
C=Cc1cn(C)cc(C#N)c1=c1ccn(C)cc1,2.376519239389017,0.4674324673156662,0.0,H5C5N
CC(=O)c1cc(=c2ccn(C)cc2)cc(C(=O)O)n1C,2.4760823268821697,0.987110199986637,0.0,H16C15N2O3
CCC1=CN(C)C(=C[C]1[C]1C=CN(C)C=C1)C#C,1.8725897495438404,0.3869442687406264,0.0,H9C8N
CNC1=CN(C)C=C[C]1[C]1C=CN(C)[CH][C]1N(=O)=O,2.2226439821221,1.2815081973036286,0.0,H16C13(N2O)2
CC(C)(C)[C]1[CH]N(C)C=C(C1=c1ccn(C)cc1)N(C)C,1.9549409346924225,-0.3311288363896891,0.0,H9C6N
CNc1cn(C)c(cc1=c1ccn(C)cc1)OCCOCCOC,1.6839812070735207,-0.2415267861673782,0.0,H9C6NO
C#Cc1cn(C)c(cc1=c1ccn(C)cc1)C#N,2.2849246736783244,0.7254782463111042,0.0,H13(C5N)3
CN(C)Cn1ccc(=c2ccn(C)cc2)cc1,1.8890990730047637,-0.384282941368292,0.0,H19C14N3
CNc1cn(C)c(cc1=c1ccn(C)cc1)Cl,1.8866340780929023,1.1838773656869308,0.0,H16C13N3Cl
CN(C)c1cc(=c2ccn(C)cc2)cc(n1C)OC,1.687605347071076,-0.2748361486323118,0.0,H21C15N3O
CN1C=C[C](C=C1)[C]1C=C(C#N)N(C)C=C1O,2.1378668422345077,0.6623243142399589,0.0,H13C13N3O
Cn1ccc(=c2cc(C#N)n(C)c(c2)OCCOC)cc1,2.0685874861570483,0.6515840681000555,0.0,H19C16N3O2
CCc1cc(=c2ccn(C)cc2)cc(NC)n1C,1.628180392291688,-0.377083078589203,0.0,H7C5N
Cn1ccc(=c2c(C#N)cn(C)cc2F)cc1,2.3121215593142552,0.3476061888082769,0.0,H12C13N3F
CCC1=CN(C)C(=C[C]1[C]1C=CN(C)C=C1)F,1.8919438980170529,-0.1672548078226099,0.0,H17C14N2F
CNc1cn(C)c(cc1=c1ccn(C)cc1)OCCOC,1.6250105708364573,-0.1948833612463203,0.0,H23C16N3O2
Cc1cc(=c2ccn(C)cc2)ccn1CN(C)C,1.8496174475782028,-0.424966874574602,0.0,H7C5N
Cn1ccc(=c2cc(C(=O)O)n(C)c(c2)F)cc1,2.3777186192288355,0.9011855233853568,0.0,H13C13N2O2F
CN(C)C1=CN(C)C=C[C]1[C]1C=CN(C)C=C1OC,1.6972981807790348,-0.1126068985562596,0.0,H21C15N3O
Cn1ccc(=c2c(C#N)cn(C)cc2OC)cc1,2.0911918412253727,0.2582825409750513,0.0,H15C14N3O
C#Cc1cn(C)cc(c1=c1ccn(C)cc1)C(=O)O,2.321646044352383,0.6401336538307079,0.0,H14C15(NO)2
C=Cc1cn(C)c(CC)cc1=c1ccn(C)cc1,1.902445064931817,-0.2093900166568345,0.0,H10C8N
Cn1ccc(=c2cc(N)n(C)c(c2)O)cc1,1.6571312448155369,-0.4494753952116297,0.0,H15C12N3O
CC(C)(C)[C]1[CH]N(C)C=C(C1=c1ccn(C)cc1)O,1.8209882064016711,-0.2318165834316459,0.0,H22C16N2O
CCCn1ccc(=c2ccn(C)c(c2)NC)cc1,1.6316638058902757,-0.4553386701903945,0.0,H7C5N
Cn1ccc(=c2cc(F)n(C)c(c2)O)cc1,1.9354138170616355,-0.0377776392400845,0.0,H13C12N2OF
CCC1=CN(C)C(=C[C]1[C]1C=CN(C)C=C1)C,1.6948889229475754,-0.3388381534154177,0.0,H20C15N2
CNc1cc(=c2ccn(C)cc2)c(cn1C)OCCOCCOC,1.6986813109338983,-0.3994020896519941,0.0,H9C6NO
CC(C)(C)c1cn(C)c(cc1=c1ccn(C)cc1)OCCOC,1.6355295938607015,-0.2158430956536903,0.0,H28C19(NO)2
Cn1ccc(=c2cc(C#N)n(C)c(c2)N)cc1,2.048906401066779,0.5962151877771249,0.0,H14C13N4
C=Cc1cn(C)cc(c1=c1ccn(C)cc1)C(=O)O,2.5030530451018422,0.5715597474314564,0.0,H16C15(NO)2
C#CC1=C[C]([C]2C=CN(C)C=C2)C(=CN1C)O,1.9508308401978869,0.4014737762678124,0.0,H14C14N2O
CN(C)c1cn(C)c(cc1=c1ccn(C)cc1)OCCOCCOC,1.725435989808466,-0.2664368488680337,0.0,H29C19(NO)3
CN(C)C1=CN(C)C=C[C]1[C]1C=CN(C)C=C1N(C)C,1.5677380637331226,-0.1196796624048146,0.0,H6C4N
CNc1cc(=c2ccn(C)cc2)cc(n1C)OCCOCCOCCOC,1.57157822673762,-0.3328143720995284,0.0,H31C20N3O4
CCc1cn(C)c(cc1=c1ccn(C)cc1)O,1.755295465818199,-0.206959482244565,0.0,H18C14N2O
CNC1=CN(C)C=C[C]1[C]1C=CN(C)C=C1,1.7033326779470372,-0.2708894503324699,0.0,H17C13N3
CNc1cc(=c2ccn(C)cc2)ccn1C,1.6402341809021892,-0.3442450417809595,0.0,H17C13N3
Cc1cn(ccc1=c1ccn(C)cc1)CNC,1.8026587978289168,-0.3648773252847603,0.0,H19C14N3
CNc1cn(C)c(cc1=c1ccn(C)cc1)C(F)(F)F,1.9557048072179897,0.3730330691629206,0.0,H16C14(NF)3
CNc1cc(=c2ccn(cc2)CC(Cl)(Cl)Cl)ccn1C,1.8571453952987211,2.227016176666075,0.0,H16C14(NCl)3
Cn1ccc(=c2cc(c3ccccc3)n(C)cc2OC)cc1,1.9277705801629053,0.2307095776828647,0.0,H20C19N2O
Cn1ccc(=c2c(C#N)cn(C)cc2OCCOCCOC)cc1,2.283287470837968,0.2391104883623485,0.0,H23C18(NO)3
CN(C)Cn1ccc(=c2ccn(C)c(c2)C(Cl)(Cl)Cl)cc1,2.2204424696115894,3.475235919564148,0.0,H6C5NCl
Cn1ccc(=c2cc(C(Br)(Br)Br)n(C)cc2OC)cc1,2.111990984872682,3.687701188429492,0.0,H15C14Br3N2O
Cn1ccc(=c2cc(n(C)cc2O)OCCOC)cc1,1.729508962538239,-0.0476955410289519,0.0,H20C15N2O3
Cn1ccc(=c2cc(F)n(C)cc2C(=O)O)cc1,2.219572752955719,0.5093829190096586,0.0,H13C13N2O2F
C#Cc1cc(=c2ccn(C)cc2)cc(NC)n1C,1.809980602980068,0.4337178239416972,0.0,H17(C5N)3
CNCn1ccc(=c2ccn(C)cc2)c(c1)N(=O)=O,2.4019967057080067,1.36930867160263,0.0,H16C13(N2O)2
c1cc(c2c(c1C(=O)O)ONO2)C(=O)O,4.793801604113105,1.680361431784695,0.0,H5C8NO6
c1cc(C#N)c2c(c1)ON(C(F)(F)F)O2,5.166327713149803,0.9875219571964408,0.0,H3C8N2O2F3
COCCOc1cccc2c1ONO2,4.452536770969891,-0.0967615627909252,0.0,H11C9NO4
c1cc2c(c(c1C(=O)O)C(=O)O)ONO2,4.863035612424573,1.3694299527356637,0.0,H5C8NO6
c1cc(c2c(c1)ON(C(Cl)(Cl)Cl)O2)C(=O)O,4.925020538009994,4.49169644490903,0.0,H4C8NCl3O4
c1cc(c2c(c1)ON(N(=O)=O)O2)C(F)(F)F,4.671970075194258,3.3260105490131537,0.0,H3C7N2O4F3
C=Cc1cc(=c2ccn(C)cc2)c(cn1C)N(C)C,1.7846160584645987,0.2880944650874881,0.0,H21C16N3
c1cc2c(cc1C(=O)O)ON(C(F)(F)F)O2,5.069750476378976,0.977593353179691,0.0,H4C8NO4F3
CNc1cc(=c2ccn(C)cc2)c(cn1C)N(=O)=O,2.187783089136792,1.3446613239226282,0.0,H16C13(N2O)2
CN[N]Oc1c(cccc1[O])C(=O)O,3.659050793086499,2.7257790573872627,0.0,H4C4NO2
CNC1=CN(C)C=C[C]1[C]1C=CN(C)C=C1NC,1.5216973900147424,-0.1516947725380304,0.0,H10C7N2
CN[C]1[C](C(=c2ccn(C)cc2)C=CN1C)C(F)(F)F,2.1426614826319565,-0.2532749065852839,0.0,H16C14(NF)3
Cn1ccc(=c2cc(n(C)cc2F)OCCOCCOC)cc1,1.8891187277891728,-0.0450582164216029,0.0,H23C17N2O3F
Cn1ccc(=c2cc(N)n(C)c(c2)OCCOC)cc1,1.5888025891777944,-0.3332453813622122,0.0,H21C15N3O2
C#Cc1cn(C)c(cc1=c1ccn(C)cc1)c1ccccc1,2.013636983579636,0.2966645543761843,0.0,H9C10N
c1cc2c(cc1C(F)(F)F)ON(C(Br)(Br)Br)O2,4.996560354623943,2.517388260597363,0.0,H3C8Br3NO2F3
CN[N]Oc1cc(ccc1[O])C(=O)O,3.872430639248341,2.8225518079467293,0.0,H4C4NO2
c1cc2c(c(c1Cl)Cl)ONO2,4.672529160293925,1.3898951909883182,0.0,H3C6N(ClO)2
c1cc(C#N)c2c(c1)ON(C(Br)(Br)Br)O2,5.044888539757812,4.839826968696434,0.0,H3C8Br3(NO)2
c1cc2c(c(c1C(Cl)(Cl)Cl)C(Cl)(Cl)Cl)ONO2,4.8574685551371655,3.361434747575549,0.0,H3C8N(Cl3O)2
CCc1ccc2c(c1CC)ONO2,4.249732082196351,-0.4269577383296563,0.0,H13C10NO2
c1c(c(cc2c1ONO2)N)N,3.4323204841672124,-0.2947749527324048,0.0,H7C6N3O2
C#Cc1ccc2c(c1C#C)ONO2,4.570744187106902,0.8616057818740956,0.0,H5C10NO2
c1cc(c2c(c1)ON(C(Br)(Br)Br)O2)C(=O)O,4.8936211071792055,4.744345942535437,0.0,H4C8Br3NO4
c1cc(c2c(c1)ON(O)O2)Cl,4.923802066661301,1.1460800215150813,0.0,H4C6NClO3
C#Cc1ccc(C#C)c2c1ONO2,4.675622953130732,0.9774566731190136,0.0,H5C10NO2
c1cc2c(c(c1O)N)ONO2,4.145280249178176,-0.4277427187284046,0.0,H6C6N2O3
C#Cc1cc(C#C)c2c(c1)ONO2,4.584620126173467,0.7450960703714373,0.0,H5C10NO2
c1c(cc2c(c1F)ONO2)F,4.708618965627101,0.4186743450714858,0.0,H3C6N(OF)2
C=Cc1ccc2c(c1C=C)ONO2,4.28368016659042,0.6466002242374089,0.0,H9C10NO2
C=CN1Oc2cccc(c2O1)Cl,4.440371777598193,1.212559987435816,0.0,H6C8NClO2
Cc1ccc(C)c2c1ONO2,4.305076594729689,-0.2897726078430422,0.0,H9C8NO2
c1cc2c(c(c1F)F)ONO2,4.711798779100354,0.5652053450772656,0.0,H3C6N(OF)2
c1c(cc2c(c1Cl)ONO2)Cl,4.6992318490971225,1.3150405897045858,0.0,H3C6N(ClO)2
C=Cc1ccc(C=C)c2c1ONO2,4.919544644291454,0.8901635414691556,0.0,H9C10NO2
c1cc(c2c(c1)ON(C(=O)O)O2)N,4.359340491506009,0.705208331369795,0.0,H6C7(NO2)2
CNC1=CN(C)C=C[C]1[C]1C=CN(C)[CH][C]1C(Cl)(Cl)Cl,2.0147992606885965,3.5906816496368266,0.0,H16C14(NCl)3
c1ccc(cc1)c1cccc2c1ON(N(=O)=O)O2,4.401131144351529,3.255427392131969,0.0,H4C6NO2
c1cc2c(c(c1C(=O)O)N)ONO2,4.314850882995961,0.725920646267332,0.0,H6C7(NO2)2
COc1ccc(c2c1ONO2)OC,4.258774928462662,-0.047899786948983,0.0,H9C8NO4
Cc1cc(c2c(c1)ONO2)Cl,4.495876230475551,1.2181500601196604,0.0,H6C7NClO2
c1cc2c(c(c1C(Br)(Br)Br)Cl)ONO2,4.831403926998609,2.749671642924659,0.0,H3C7Br3NClO2
c1cc2c(c(c1C#N)Cl)ONO2,4.927272328999242,0.9512902717047838,0.0,H3C7N2ClO2
C=Cc1ccc(c2c1ONO2)Cl,4.61907389059852,0.6965293557273982,0.0,H6C8NClO2
C=Cc1cccc2c1ON(C)O2,4.222568669288739,0.472706596779608,0.0,H9C9NO2
c1c(cc2c(c1Cl)ONO2)C(Br)(Br)Br,4.782863229187205,2.883311217121081,0.0,H3C7Br3NClO2