smiles,IE,EA,charge,formula_pretty
c1ccc(cc1)[C@@H]1C=CC=C1O,4.123798950969649,-0.4299924509163246,0.0,H10C11O
C#CC1=CC=C[C@H]1F,4.892238668696882,1.1874521486002778,0.0,H5C7F
C=CC1=CC=C[C@H]1F,4.524206348505322,1.043370626710021,0.0,H7C7F
CNC1=CC=C[C@H]1N(C)C,3.440730662597707,-0.5596141557183727,0.0,H7C4N
CC1=CC=C[C@H]1N(C)C,4.081921821234209,-0.2586386666684119,0.0,H13C8N
CN(C)[C@@H]1C=CC=C1O,4.010761265602559,-0.3334303367322717,0.0,H11C7NO
CN[C@@H]1C=CC=C1OC,3.985888108608924,-0.3372775884748988,0.0,H11C7NO
C1C[C@H](C[C@H](C1)O)C(=O)O,6.088071915895489,-0.5118608525557646,0.0,H12C7O3
CNC1=CC=C[C@H]1C(=O)O,3.786922431261337,-0.0620145807046355,0.0,H9C7NO2
C#C[C@@H]1C=CC=C1OC,4.226856923454397,-0.2414367147743177,0.0,H8C8O
CN(C)[C@@H]1C=CC=C1F,4.281841320216335,0.0774044744408457,0.0,H10C7NF
COC1=CC=C[C@H]1N,4.066337542642577,-0.2075251465725158,0.0,H9C6NO
C1C[C@H](C[C@H](C1)N(=O)=O)N,5.185348965410958,1.4301277649170516,0.0,H6C3NO
CC1=CCC=C1NC,3.5699488824280707,-1.0310408001681934,0.0,H11C7N
CNC1=CC=C[C@H]1O,3.494054503636653,-0.0482083130613317,0.0,H9C6NO
C1=C[C@H](C(=C1)N(=O)=O)C(=O)O,6.009338091660174,2.5110919651539008,0.0,H5C6NO4
CN(C)C1=CCC=C1N(=O)=O,4.07697447577957,1.7880349736366044,0.0,H10C7(NO)2
CN(C)C1=CCC=C1O,3.6455821761406697,-0.6899316311486472,0.0,H11C7NO
CCC1=CCC=C1N(=O)=O,5.277053844641705,1.802227300085724,0.0,H9C7NO2
CCC1=CCC=C1O,4.278510804511461,-0.6788973111055383,0.0,H10C7O
C=CC1=CCC=C1C,4.32362237199195,0.162719502762775,0.0,H5C4
CN(C)C1=CCC=C1C(Cl)(Cl)Cl,3.945878738407919,2.6337418056224124,0.0,H10C8NCl3
CN(C)C1=CC=C(C1)N(=O)=O,4.235048861940959,1.4157987828944898,0.0,H10C7(NO)2
C1C=C(C(=C1)C(Cl)(Cl)Cl)C(Cl)(Cl)Cl,5.515294097707374,2.6406106667069253,0.0,H4C7Cl6
CN(C)C1=CCC=C1N,3.644043519255865,-0.8983968574415484,0.0,H12C7N2
CNC1=CCC=C1OC,3.6287789771591634,-0.8931699476583161,0.0,H11C7NO
CNC1=CCC=C1NC,3.5705793838220417,-1.405988148279357,0.0,H12C7N2
COC1=CC=C[C@H]1F,4.343808237293706,1.4146119392858965,0.0,H7C6OF
C[C@@H]1[C@H](N)SCCS1,4.703441619274235,-0.9129408202956256,0.0,H11C5S2N
C#CC1=CCC=C1C,4.6185071122377845,0.082842005783823,0.0,HC
CCC1=COC=C(C1)C(=O)O,4.801041704362069,0.6263625656680234,0.0,H10C8O3
C1[C@@H](C(=O)O)SC[C@@H](F)S1,5.251217197810183,0.6956559048572672,0.0,H7C5S2O2F
CN(C)C1=CCC=C1OC,3.643130117415785,-0.976018731962904,0.0,H13C8NO
C[C@]1(CSCCS1)N,4.68201015009763,-0.96329422572162,0.0,H11C5S2N
CN[C@]1(CSCCS1)N,4.480171625329239,-0.8187065530204563,0.0,H12C5(SN)2
CN[C@@H]1[C@H](O)SCCS1,4.676895577072719,-0.8368931869794323,0.0,H11C5S2NO
c1ccc(cc1)[C@@H]1CSC[C@H](N)S1,4.919536039009108,0.7003174028664945,0.0,H13C10S2N
CN[C@@H]1CS[C@@H](CS1)N,4.563126983020629,-0.9265319928184907,0.0,H12C5(SN)2
C1CS[C@H]([C@@H](C(Cl)(Cl)Cl)S1)F,5.4298801750643175,2.408797886988032,0.0,H6C5S2Cl3F
C(#N)[C@@H]1CSC[C@H](N)S1,5.102628461021231,0.909648525366356,0.0,H8C5(SN)2
C1[C@@H](C(Cl)(Cl)Cl)SC[C@@H](N)S1,4.851552136338432,2.443260216890485,0.0,H8C5S2NCl3
C(#N)[C@@H]1CS[C@@H](CS1)N(=O)=O,5.72986947997706,1.720856643661682,0.0,H6C5S2(NO)2
C1[C@@H](C(=N)O)SC[C@@H](N(=O)=O)S1,5.485758117510704,1.8222806296122145,0.0,H8C5S2N2O3
C1CS[C@@](CS1)(C(Cl)(Cl)Cl)N,4.713840559322852,2.62129793279164,0.0,H8C5S2NCl3
c1ccc(cc1)C1=C(N(=O)=O)OC=CO1,4.736932445038837,2.009422614578944,0.0,H7C10NO4
C1[C@@H](C(Cl)(Cl)Cl)SC[C@@H](F)S1,5.35583758270659,2.356379208207364,0.0,H6C5S2Cl3F
CN[C@H]1CSC[C@@H](N)S1,4.860788849194796,-0.8312299072626046,0.0,H12C5(SN)2