smiles,IE,EA,charge,formula_pretty
CN(C)c1c(ccs1)N(=O)=O,4.278789684985531,1.628971331979847,0.0,H8C6S(NO)2
c1c(csc1N)O,3.6003964048337367,-0.4861670483354827,0.0,H5C4SNO
CN(C)c1cc(cs1)O,3.437546699836821,-0.4578468114690621,0.0,H9C6SNO
C(#N)c1cscc1C(Br)(Br)Br,5.821390042599523,2.7603309705096764,0.0,H2C6SBr3N
CNc1cc(cs1)O,3.4629895587109787,-0.4540125397237715,0.0,H7C5SNO
CC(C)(C)c1cc(C#N)cs1,5.18573706262905,0.5002831410871296,0.0,H11C9SN
c1cc(O)sc1C(Br)(Br)Br,4.63340997415944,3.58547191589023,0.0,H3C5SBr3O
COCCOc1cc(C#N)cs1,4.619646605873276,0.578714901906642,0.0,H9C8SNO2
CCc1cc(cs1)N,3.7213456372825022,-0.5303645725784008,0.0,H9C6SN
c1c(csc1C(Br)(Br)Br)C(=O)O,5.494856864877511,2.919405686488608,0.0,H3C6SBr3O2
CN(C)c1cc(cs1)N(=O)=O,3.9744965509213217,1.8889286100107712,0.0,H8C6S(NO)2
CN(C)c1ccc(C(F)(F)F)s1,3.885598663282144,0.2274775591773505,0.0,H8C7SNF3
CN(C)c1ccc(C(Br)(Br)Br)s1,3.8382602350844537,3.2746978873561603,0.0,H8C7SBr3N
c1c(c(cs1)N(=O)=O)C(=O)O,5.939727134552959,2.0874844942605706,0.0,H3C5SNO4
COCCOc1c(ccs1)OC,3.849653415699868,-0.0967276383620627,0.0,H12C8SO3
c1cc(N)sc1F,3.699253944685188,0.0928390631903313,0.0,H4C4SNF
CNc1ccc(N(C)C)s1,2.6971465562834056,-0.4511113789871159,0.0,H12C7SN2
COc1ccc(C(=O)O)s1,4.654025691377319,0.8668146529977094,0.0,H6C6SO3
CNc1cc(C(Br)(Br)Br)sc1,3.919511759298621,3.3694972982862965,0.0,H6C6SBr3N
C=Cc1ccc(N)s1,3.500403927145817,0.2810444091424871,0.0,H7C6SN
C#Cc1cc(cs1)N,3.940885109442752,0.585689078905125,0.0,H5C6SN
c1c(csc1C(Cl)(Cl)Cl)N(=O)=O,5.922464461205527,2.8221173618818285,0.0,H2C5SNCl3O2
c1ccc(cc1)c1ccc(O)s1,3.948625945414824,0.3741755091810774,0.0,H8C10SO
c1c(csc1C(F)(F)F)N,4.169631528836908,0.4150910330368789,0.0,H4C5SNF3
c1cc(N(=O)=O)sc1C(=O)O,6.18324148218162,2.575090245006868,0.0,H3C5SNO4
CNc1cc(cs1)c1ccccc1,3.529311309482728,0.108497799608449,0.0,H11C11SN
CN(C)c1ccsc1C(F)(F)F,4.030061252525774,0.3781641565525206,0.0,H8C7SNF3
CN(C)c1cc(cs1)C(Br)(Br)Br,3.788376538513694,2.653249075659551,0.0,H8C7SBr3N
CC(=O)c1cccc2c1[nH]sn2C,3.091837395991752,2.113977658130898,0.0,H10C9SN2O
C=Cc1ccc(N(C)C)s1,3.324744757073495,0.2705527145131783,0.0,H11C8SN
CN(C)c1ccc(C#N)s1,3.952969690455211,0.5168682972303942,0.0,H8C7SN2
C=Cc1ccc(NC)s1,3.3470873495221896,0.283906480724545,0.0,H9C7SN
CN(C)c1ccc(C(=O)O)s1,3.9182654860574986,0.6598821115854663,0.0,H9C7SNO2
COCCOc1cc(cs1)F,4.373059499802912,0.0685473955141788,0.0,H9C7SO2F
COc1ccc(N)s1,3.287731794652791,-0.4974835308988985,0.0,H7C5SNO
c1cc(C(Cl)(Cl)Cl)sc1C(=O)O,5.666094307527237,2.885591286228737,0.0,H3C6SCl3O2
CNc1cscc1c1ccccc1,3.732560381920485,0.0871996236179257,0.0,H11C11SN
CN(C)c1cscc1N(=O)=O,4.116819008364109,1.8770702535599413,0.0,H8C6S(NO)2
c1cc(O)sc1N,3.326550444640452,-0.191134048886306,0.0,H5C4SNO
COCCOc1ccc(O)s1,3.769865986452351,-0.4167880523331404,0.0,H10C7SO3
c1c(csc1Cl)C(=O)O,5.236010755548341,0.8546788139006822,0.0,H3C5SClO2
C#Cc1cc(C#N)cs1,5.177411018635757,0.9230612637235028,0.0,H3C7SN
c1cc(C(Cl)(Cl)Cl)sc1C#N,5.698447053795098,2.917463805986336,0.0,H2C6SNCl3
c1c(C#N)csc1C(F)(F)F,5.980034184654505,1.0059824049181771,0.0,H2C6SNF3
c1cc(N(=O)=O)sc1N,4.520253069791215,1.8257643158409336,0.0,H4C4S(NO)2
COCCOc1ccc(C(=O)O)s1,4.649233306806854,0.8716565377959342,0.0,H10C8SO4
CC(C)(C)c1cscc1C#N,5.322753773698059,0.4949331653275295,0.0,H11C9SN
CNc1ccc(C#N)s1,4.031380634570814,0.5165861015753763,0.0,H6C6SN2
CN(C)c1cc(C#N)cs1,3.851160295058071,0.4315786826315162,0.0,H8C7SN2
CN(C)c1cscc1C(Br)(Br)Br,4.09121899830061,3.095186140469741,0.0,H8C7SBr3N
CN(C)c1ccc(Cl)s1,3.5125688225540217,1.1803544384361886,0.0,H8C6SNCl
c1c(csc1Cl)N,3.935937541076419,1.2317835158188246,0.0,H4C4SNCl
c1cc(O)sc1C(=O)O,4.810425773220777,0.8153778122010409,0.0,H4C5SO3
COc1cc(cs1)O,4.015274175644299,-0.4072022110653051,0.0,H6C5SO2
c1ccc(cc1)c1cc(cs1)C(=O)O,4.607461054297891,0.8225369830739511,0.0,H8C11SO2
CNc1c(ccs1)N(=O)=O,4.437763800471293,1.492075921099604,0.0,H6C5S(NO)2
c1c(csc1C#N)C(=O)O,5.803322668741748,1.1889640359273472,0.0,H3C6SNO2
COc1cc(N(=O)=O)sc1,4.990278549522918,2.1919960100109166,0.0,H5C5SNO3
CNc1cc(Cl)sc1,3.804316956267576,1.2286081949474466,0.0,H6C5SNCl
c1c(C#N)csc1O,4.828043081649957,0.5105929303368613,0.0,H3C5SNO
Cc1cc(cs1)O,4.302284709470404,-0.4783191899936354,0.0,H6C5SO
c1cc(O)sc1C(F)(F)F,4.839492056436574,0.4333930642329506,0.0,H3C5SOF3
CN(C)c1ccsc1N,3.1559450190412464,-0.5718538865570735,0.0,H10C6SN2
CNc1ccc(C(F)(F)F)s1,3.9684816949280495,0.2430280351087277,0.0,H6C6SNF3
CNc1ccc(C(Br)(Br)Br)s1,3.900641633279156,3.3697643807623536,0.0,H6C6SBr3N
c1c(csc1C(=O)O)C(Cl)(Cl)Cl,5.719845544562849,2.633981502914685,0.0,H3C6SCl3O2
c1cc(F)sc1C(=O)O,5.377762549452745,1.0474460068558984,0.0,H3C5SO2F
c1cc(N(=O)=O)sc1C#N,6.205969142918184,2.6292625373804186,0.0,H2C5S(NO)2
CC(C)(C)c1cc(cs1)C(=O)O,5.019188212174049,0.6524977093627968,0.0,H12C9SO2
c1ccc(cc1)c1ccc(C#N)s1,4.744707979121449,1.213757990377053,0.0,H7C11SN
CN(C)c1c(ccs1)N,3.200023327486269,-0.6046613867460109,0.0,H10C6SN2
CNc1cscc1N(C)C,3.5861879127238354,-0.8442634394254127,0.0,H12C7SN2
CN(C)c1cc(C(F)(F)F)sc1,3.851478997510276,0.3776545635206276,0.0,H8C7SNF3
CNc1ccsc1N(=O)=O,4.6575041851589045,1.6512982316213312,0.0,H6C5S(NO)2
c1ccc(cc1)c1cscc1O,4.542411139123578,0.2016420155356173,0.0,H8C10SO
c1c(C#N)csc1Cl,5.359311190344306,1.403938839257171,0.0,H2C5SNCl
CN(C)c1ccc(O)s1,3.139196632686071,-0.4216597444814396,0.0,H9C6SNO
CNc1cc(cs1)C(=O)O,3.806404801396275,0.5999258953503159,0.0,H7C6SNO2
CCc1cc(cs1)O,4.307345028207783,-0.433918791283213,0.0,H8C6SO
CN(C)c1ccc(F)s1,3.465398299523804,0.1120848994738481,0.0,H8C6SNF
c1c(csc1C(Cl)(Cl)Cl)C(=O)O,5.634512935970269,2.8365114519489,0.0,H3C6SCl3O2
CN(C)c1cc(cs1)N,3.183243449396832,-0.70680576244049,0.0,H10C6SN2
c1c(csc1C(Cl)(Cl)Cl)C(Br)(Br)Br,5.528973804111592,2.7705499363015407,0.0,H2C6S(BrCl)3
CN(C)c1ccc(N)s1,2.845615798670769,-0.5691187234246171,0.0,H10C6SN2
c1ccc(cc1)c1cc(cs1)O,4.224521034373174,0.4952892562192574,0.0,H8C10SO
CNc1ccc(F)s1,3.506119188519369,0.1080971527968359,0.0,H6C5SNF
c1c(csc1C(Br)(Br)Br)N(=O)=O,5.756730681454064,2.957110803190153,0.0,H2C5SBr3NO2
c1c(csc1O)C(=O)O,4.688955301271198,0.6904644035763341,0.0,H4C5SO3
c1cc(C(Br)(Br)Br)sc1C#N,5.561285433906596,3.036624475027202,0.0,H2C6SBr3N
c1cc(N)sc1C(F)(F)F,4.155285989310505,0.2655265134031652,0.0,H4C5SNF3
COCCOc1ccc(C#N)s1,4.686092696339619,0.7258347943548871,0.0,H9C8SNO2
C#Cc1cc(cs1)C(C)(C)C,4.671387392388715,0.5487413285678486,0.0,H12C10S
c1cc(N)sc1Cl,3.740073306229169,1.1980945327901282,0.0,H4C4SNCl
CNc1cc(F)sc1,3.7826818271474623,-0.6537391202968137,0.0,H6C5SNF
C#Cc1ccc(N(C)C)s1,3.52778350728986,0.3803341174694652,0.0,H9C8SN
c1c(csc1C(F)(F)F)O,4.934026689721213,0.50398303485199,0.0,H3C5SOF3
c1cc(N)sc1C(Cl)(Cl)Cl,4.083372037939261,3.244257437423221,0.0,H4C5SNCl3
CNc1cc(OC)sc1,3.526047586985078,-0.7012012976578261,0.0,H9C6SNO
c1c(C#N)csc1C(Br)(Br)Br,5.639030488289427,2.9378800746577327,0.0,H2C6SBr3N
CNc1c(ccs1)N,3.09579302778875,-0.3516383911068259,0.0,H8C5SN2
CNc1ccc(Cl)s1,3.558076313690981,1.1768449427159795,0.0,H6C5SNCl
C=Cc1cc(C#N)cs1,4.827434330336109,0.9015659711891204,0.0,H5C7SN
CNc1ccc(N)s1,2.851463946839067,-0.5420073985427734,0.0,H8C5SN2
COc1cc(cs1)C(=O)O,4.513810271249531,0.7074313272802102,0.0,H6C6SO3
c1c(csc1O)O,4.0840330024453575,-0.4148610972355526,0.0,H4C4SO2
c1ccc2c(c1)n(C(=O)O)sn2C(=O)O,4.057255495941353,2.285330800857628,0.0,H6C8S(NO2)2
c1c(c(cs1)O)O,4.569742546953057,-0.3290087158406094,0.0,H4C4SO2
CN(C)c1ccc(C(Cl)(Cl)Cl)s1,3.845374439182342,3.0837712969092537,0.0,H8C7SNCl3
CNc1cc(cs1)C(Br)(Br)Br,3.849878834787524,2.614075167477131,0.0,H6C6SBr3N
CNc1ccsc1C(Br)(Br)Br,4.140866374969482,3.1665428380598315,0.0,H6C6SBr3N
c1cc(c(c2c1[nH]s[nH]2)O)O,3.393225861765677,2.419510817680566,0.0,H6C6S(NO)2
Cn1c2ccccc2n(C)s1,2.944677785811655,1.8221422085349328,0.0,H10C8SN2
CNc1cc(cs1)N(C)C,3.12319882610027,-0.698132038598851,0.0,H12C7SN2
CC(=O)c1ccc2c(c1)[nH]s[nH]2,3.5036561718749,0.9967543824583118,0.0,H8C8SN2O
c1cc(c2c(c1)[nH]s[nH]2)C(=O)O,3.372195279801963,0.8605917768632936,0.0,H6C7S(NO)2
CC(=O)c1cccc2c1n(N)s[nH]2,3.500570068966772,1.1041936254165194,0.0,H9C8SN3O
CC(=O)c1ccc2c(c1)n(OC)s[nH]2,4.010817478867102,0.9972511480460526,0.0,H10C9S(NO)2
CN(C)c1ccc(N(=O)=O)s1,4.2801091704292045,1.7286190414357407,0.0,H8C6S(NO)2
c1cc(c2c(c1)n(C(=O)O)s[nH]2)C(=O)O,3.677732610850944,2.1412734517049103,0.0,H6C8S(NO2)2
COCCOn1c2ccccc2[nH]s1,3.8979005489687553,1.7893974305858138,0.0,H12C9S(NO)2
CNc1ccc(C(Cl)(Cl)Cl)s1,3.914813964199857,3.246059884122224,0.0,H6C6SNCl3
c1cc(ccn1)c1cc(nc(c1)O)O,4.955733039192273,1.0507383067502816,0.0,H4C5NO
c1cc(ccn1)c1ccncc1,5.827429285399921,1.0865343760866382,0.0,H4C5N
C1C(CCSC1)(C)N,4.697536835670325,-0.9306811482078046,0.0,H13C6SN
CNc1ccsc1c1ccccc1,3.55404923024762,0.2303035593518871,0.0,H11C11SN
C1CC(CSC1)(N)N,4.599865606030653,-0.6418952892803644,0.0,H12C5SN2
CNc1c(ccs1)c1ccccc1,3.475951399368205,-0.0279909453005529,0.0,H11C11SN
CC(=O)c1cccc2c1[n]s[nH]2.N(=O)[O],3.255061320103414,3.4373995787660534,0.0,H7C8S(NO)3
C1[C@H]([C@H](CSC1)O)O,4.872516581018862,-0.3793634932393614,0.0,H10C5SO2
C1C(CCSC1)(F)C,4.801916490488656,-0.8523787856742273,0.0,H11C6SF
c1cc(ccn1)c1cc(nc(c1)C#N)C,5.819580746772408,1.3875751021456382,0.0,H3C4N
C1C[C@](CSC1)(C)CC,4.639519710808235,-0.973379077566642,0.0,H16C8S
c1cc(ccn1)c1ccnc(c1N(=O)=O)C,5.862236019570991,2.026457319594192,0.0,H9C11N3O2
C1C(CCSC1)(C#N)C#N,5.156686151121539,0.7345156856768882,0.0,H8C7SN2
C1C[C@H]([C@H](SC1)N(=O)=O)C,5.187453730873676,1.715459452936193,0.0,H11C6SNO2
C1[C@H](C[C@H](SC1)N(=O)=O)C,5.170530135864828,1.7518475984448745,0.0,H11C6SNO2
C1C[C@H]([C@H](SC1)NC)C,4.081675650327815,-0.7376526960310001,0.0,H15C7SN
c1cc(c(cn1)C)c1ccnc(c1)C#C,5.599052124483569,1.0628192251111614,0.0,H10C13N2
C1[C@H](C[C@H](SC1)C)F,4.814017360238358,-0.8737050030016689,0.0,H11C6SF
C1C[C@](CSC1)(OC)C,4.584702775313053,-0.8706271641916827,0.0,H14C7SO
C1CC(CSC1)(F)F,5.0691140646937125,-0.8018546310217061,0.0,H8C5SF2
C1C[C@H]([C@H](SC1)C=C)C,4.64503562975151,-0.8846509889684966,0.0,H14C8S
c1c(c2c(cc1)nc(cn2)C)NC(=O)C,4.612077032908564,1.3104586688692508,0.0,H11C11N3O
C1C(CCSC1)(O)O,4.834990417342487,-0.7020534874558506,0.0,H10C5SO2
C1CC[C@H](S[C@H]1C)N(=O)=O,5.187173910771525,1.7829087291625911,0.0,H11C6SNO2
c1cc(c(cn1)O)c1ccncc1C,5.253828187376348,0.7778503859095509,0.0,H10C11N2O
C1C[C@](CSC1)(C)C(=O)O,4.8017315075027,-0.4745111364158219,0.0,H12C7SO2
c1(cc(cs1)N(=O)=O)C,5.366934026873059,1.9641258570351057,0.0,H5C5SNO2
c1cc(ccn1)c1cc(ncc1N(=O)=O)C,5.812082606412877,2.143473641755554,0.0,H9C11N3O2
c1(c(c2c(cc1)nccn2)N)C,3.9902204776532018,1.1142524767306896,0.0,H3C3N
[C@@H]1(CC[C@H](SC1)F)C,5.135857417758961,-0.8212475856438686,0.0,H11C6SF
[C@@H]1(C[C@H](CSC1)N(=O)=O)C,5.014228844951139,1.6887288017074753,0.0,H11C6SNO2
c1c(c2c(cc1)nc(cn2)C)N,4.034464176889378,1.076890463001837,0.0,H3C3N
c1cc(ccn1)c1c(cncc1C#C)C#C,5.461685415155079,1.2167745137790915,0.0,H4C7N
c1cc2c(cc1)C(=O)c1c(C2=O)c(c(cc1)C)C(=O)O,5.83998905881308,2.5025320858818305,0.0,H5(C4O)2
c1(cc2c(cc1)ncc(n2)C)NC,4.011666465881353,1.030131694471129,0.0,H11C10N3
c1cc(c(cn1)C)c1ccncc1C,5.659863627166123,0.5598704471445672,0.0,H6C6N
c1(cc2c(c(c1)C)nccn2)NC,4.06077951436564,0.9811786189944542,0.0,H11C10N3
c1cc2c(cc1)C(=O)c1c(C2=O)cc(c(c1)O)O,5.000002110323839,2.0970080132989097,0.0,H4C7O2
Cc1ccc(N)s1,3.5242904118727894,-0.5511549025126441,0.0,H7C5SN
[C@@H]1(C[C@H](CSC1)C#C)C#C,4.953906347161682,-0.6041746213508303,0.0,H10C9S
c1(cc(cs1)C)N(=O)=O,5.549929271740984,2.143845771033375,0.0,H5C5SNO2
[C@@H]1(CC[C@H](SC1)C)F,4.8829716300839205,0.3257108698759112,0.0,H11C6SF
c1(cc2c(cc1)ncc(n2)NC)NC,3.9141655659019303,0.8357023050171848,0.0,H6C5N2
c1cc(ccn1)c1cc(nc(c1)N(=O)=O)N(=O)=O,5.845906636824656,2.4634096507230425,0.0,H3C5(NO)2
C1[C@H]([C@H](CSC1)C#N)C#N,5.229937487599818,-0.2728974246077995,0.0,H8C7SN2
c1cc2c(cc1C=C)C(=O)c1c(C2=O)c(ccc1)C,5.119809784407698,2.1383994996336697,0.0,H12C17O2
c1cc2c(cc1)nc(c(n2)OC)OC,4.818933763411769,1.0343823439267,0.0,H5C5NO
c1(cc2c(cc1)nc(cn2)N(=O)=O)C,5.635770017548202,2.459789385627664,0.0,H7C9N3O2
c1cc2c(cc1)C(=O)c1c(C2=O)cc(cc1F)F,5.98314378731593,2.317761630192399,0.0,H3C7OF
C(=O)(C(F)(F)F)c1c(O)n(nc1C)c1ccccc1,5.02142425322163,1.472299117243529,0.0,H9C12N2O2F3
CC(=O)C1=CSC(=[S]1)[C]1SC=C(C(Br)(Br)Br)S1,3.590552333008964,2.9429213099880145,0.0,H5C9S4Br3O
CC1=CSC(=[S]1)[C]1SC=C(C(Br)(Br)Br)S1,3.3869825417001267,2.928602217254229,0.0,H5C8S4Br3
C1=C[S]=C([C]2SC(=C(F)S2)C(Br)(Br)Br)S1,3.4932363425265067,2.810746717697475,0.0,H2C7S4Br3F
CC(=O)C1=C(C(Br)(Br)Br)S[C](C2=[S]C=CS2)S1,3.491383464972023,3.4205364066525363,0.0,H5C9S4Br3O
C1CCC(SC1)(N(=O)=O)N(=O)=O,5.671554522040969,2.435854064625892,0.0,H8C5S(NO2)2
C#CC1=C(C(Br)(Br)Br)S[C](C2=[S]C=CS2)S1,3.423723161767702,3.32579548927024,0.0,H3C9S4Br3
COC1=C(C(Br)(Br)Br)S[C](C2=[S]C=CS2)S1,3.3261178217013367,3.256605729425792,0.0,H5C8S4Br3O
CCC1=CSC(=[S]1)[C]1SC=C(C(Br)(Br)Br)S1,3.378973736218177,2.946741736633703,0.0,H7C9S4Br3
CC1=C(C(Br)(Br)Br)S[C](C2=[S]C=CS2)S1,3.3173554649634758,3.2360284646216315,0.0,H5C8S4Br3
C1=C[S]=C([C]2SC(=C(C(Br)(Br)Br)S2)C(Br)(Br)Br)S1,3.489509163855109,4.762454998702742,0.0,HC4S2Br3
C1=C[S]=C([C]2SC=C(C(Br)(Br)Br)S2)S1,3.4242750983918087,2.932063908019336,0.0,H3C7S4Br3
C1=C[S]=C([C]2SC(=C(O)S2)C(Br)(Br)Br)S1,3.400270810083021,2.8105461590108463,0.0,H3C7S4Br3O
C1=C[S]=C([C]2SC(=C(C(Br)(Br)Br)S2)C#N)S1,3.575056424038485,3.214189530373551,0.0,H2C8S4Br3N
C1=C[S]=C([C]2SC(=C(N(=O)=O)S2)C(Br)(Br)Br)S1,3.631901053909678,3.243795385432896,0.0,H2C7S4Br3NO2
C1=C[S]=C([C]2SC(=C(N)S2)C(Br)(Br)Br)S1,3.3165775350877085,3.2477954315487296,0.0,H4C7S4Br3N
C1=C[S]=C([C]2SC(=C(C(F)(F)F)S2)C(Br)(Br)Br)S1,3.5219291222980247,3.147575831355061,0.0,H2C8S4(BrF)3
CC(=O)c1ccsc1N,4.064334096624952,0.504609620502015,0.0,H7C6SNO
C#Cc1ccc(Cl)s1,4.735951350352115,1.3341187630481728,0.0,H3C6SCl
c1cc(N(=O)=O)sc1Cl,5.671434685829444,2.272874425261398,0.0,H2C4SNClO2
CCc1cc(Cl)sc1,4.744012842545635,1.2314335393290097,0.0,H7C6SCl
C=Cc1cc(cs1)C(Cl)(Cl)Cl,4.739455792908847,2.9214159438357457,0.0,H5C7SCl3
CCc1c(ccs1)N(C)C,3.537816749967169,-0.3864155981995281,0.0,H13C8SN
CCc1c(ccs1)N(=O)=O,5.396539266917534,1.848352243401314,0.0,H7C6SNO2
CC(=O)c1ccsc1F,5.239259870971727,0.9985278735199246,0.0,H5C6SOF
CC(=O)c1cscc1NC,3.845986883084697,0.8272709992284946,0.0,H9C7SNO
C#Cc1cc(Cl)sc1,4.901636908763612,0.4447414494257828,0.0,H3C6SCl
c1csc(C#N)c1C(=O)O,5.7459952708319175,1.631616874417523,0.0,H3C6SNO2
COc1ccsc1Cl,4.40111667606252,1.2818524566842826,0.0,H5C5SClO
C=Cc1ccc(OC)s1,3.86838910927836,0.4247386169350648,0.0,H8C7SO
C=Cc1c(ccs1)C(Br)(Br)Br,4.691250818193657,2.9712596724217293,0.0,H5C7SBr3
COCCOc1ccc(C(F)(F)F)s1,4.660182566296134,0.4415255182844704,0.0,H9C8SO2F3
CCc1c(ccs1)C(=O)O,5.045946235329756,0.5969647362304387,0.0,H8C7SO2
CC(=O)c1c(ccs1)C(Cl)(Cl)Cl,5.507951216817309,3.0556285626094906,0.0,H5C7SCl3O
C=Cc1cc(cs1)C(=O)C,4.686773457136587,0.9207047143441742,0.0,H8C8SO
CC(=O)c1cc(O)sc1,4.650739141246595,0.8000357618708223,0.0,H6C6SO2
c1c(csc1Cl)C(Cl)(Cl)Cl,5.2319931362086205,2.6524467180657667,0.0,H2C5SCl4
C=Cc1cc(cs1)F,4.575139092272002,0.6650156833689835,0.0,H5C6SF
C=Cc1cc(cs1)C(Br)(Br)Br,4.707885226985672,2.72542364950059,0.0,H5C7SBr3
C#Cc1ccsc1CC,4.695370450322661,0.2215598723174481,0.0,H8C8S
Cn1ccc(=c2ccn(cc2)COCCOC)c(c1)OCCOCCOCCOC,1.9926034573378275,-0.3055192098167025,0.0,H17C11NO3
CC(=O)c1cc(cs1)OCCOC,4.675296166181942,1.1493193027505186,0.0,H12C9SO3
CC(=O)c1ccc(C(F)(F)F)s1,5.7455095884412,1.5515510482306127,0.0,H5C7SOF3
CC(=O)c1cc(cs1)C(Br)(Br)Br,5.52472864856245,2.7597146572021303,0.0,H5C7SBr3O
CC(=O)c1cc(OC)sc1,4.477722825138335,0.8057022032968235,0.0,H8C7SO2
C#Cc1ccsc1C=C,4.494759458959015,0.8645677845466708,0.0,H6C8S
c1ccc(cc1)c1ccc(Cl)s1,4.358497022958181,0.704021830680722,0.0,H7C10SCl
C=Cc1c(ccs1)N(=O)=O,5.027078566539421,2.1405991127991,0.0,H5C6SNO2
COCCOc1c(ccs1)C(Br)(Br)Br,4.4926515753264535,3.0475707875099034,0.0,H9C8SBr3O2
C#Cc1c(ccs1)F,4.888418693337007,0.6844764841349389,0.0,H3C6SF
c1c(csc1F)N(=O)=O,5.625207023645634,2.093480699569773,0.0,H2C4SNO2F
C#Cc1c(ccs1)C(F)(F)F,5.124806899265968,1.0389915060819477,0.0,H3C7SF3
Cn1ccc(=c2ccn(cc2)COCCOC)cc1OCCOCCOCCOC,1.8311811581384971,-0.3265474788262508,0.0,H17C11NO3
CC(=O)c1c(ccs1)F,5.457053702922712,1.133454742144386,0.0,H5C6SOF
CC(=O)c1cscc1C(Br)(Br)Br,5.4465073923580345,3.0271181834919845,0.0,H5C7SBr3O
CC(=O)c1cscc1OC,4.6947046204128124,0.829682828532532,0.0,H8C7SO2
CC(=O)c1cc(F)sc1,5.248559380453662,0.9210081947472646,0.0,H5C6SOF
C=Cc1c(ccs1)NC,3.514970948284463,0.3644883762586688,0.0,H9C7SN
CN(C)c1c(ccs1)C#N,3.9718776674722895,0.5161827227399045,0.0,H8C7SN2
C#Cc1cc(cs1)F,4.904935148902586,0.7823248707660242,0.0,H3C6SF
C#Cc1ccc(CC)s1,4.537711063725146,0.555479686275794,0.0,H8C8S
CC(=O)c1ccc(NC)s1,3.921183079755429,0.7655920357188735,0.0,H9C7SNO
COCCOc1c(ccs1)N(=O)=O,4.984083788187126,1.8847038494728623,0.0,H9C7SNO4
C=Cc1c(ccs1)C#N,4.868056831126159,1.176979383280559,0.0,H5C7SN
C#Cc1ccc(C=C)s1,4.394783904031646,0.9911185946526532,0.0,H6C8S
CCc1c(ccs1)C(Cl)(Cl)Cl,5.015208095575508,2.827086487109773,0.0,H7C7SCl3
CC(=O)c1c(ccs1)Cl,5.402038581467059,1.2255710861441913,0.0,H5C6SClO
CNc1ccsc1Cl,3.772233512905223,1.1963852714812675,0.0,H6C5SNCl
Cc1ccsc1F,4.748366193207039,0.1628170198542649,0.0,H5C5SF
c1csc(c1N(=O)=O)F,5.6287557064730205,1.9522494104581711,0.0,H2C4SNO2F
Cn1ccc(=c2ccn(cc2OCCOC)COCCOCCOCCOC)cc1,2.007032209273893,-0.2633031668578041,0.0,H17C11NO3
Cn1ccc(=c2ccn(C)c(c2c2ccccc2)OCCOCCOCCOC)cc1,1.9208165831238149,-0.3321708446368574,0.0,H32C25(NO2)2
CC(=O)c1cc(cs1)C(F)(F)F,5.706368570635823,1.3309518913134526,0.0,H5C7SOF3
CC(=O)c1cc(C(Br)(Br)Br)sc1,5.453398326958995,3.058796245220583,0.0,H5C7SBr3O
COCCOc1ccc(C(Br)(Br)Br)s1,4.50072018065257,3.2431143117079047,0.0,H9C8SBr3O2
c1csc(c1N(=O)=O)Cl,5.542229832442535,2.078658071013342,0.0,H2C4SNClO2
CN(C)c1c(ccs1)O,3.2835193690239977,-0.4397661748102108,0.0,H9C6SNO
Cc1ccc(Cl)s1,4.641403312738111,1.2229850359450212,0.0,H5C5SCl
CCc1ccc(Cl)s1,4.634150804094679,1.227661973503564,0.0,H7C6SCl
c1c(csc1C(Br)(Br)Br)C(Br)(Br)Br,5.425276961724739,2.9267325040651486,0.0,H2C6SBr6
CN(C)c1c(c(=c2ccn(C)cc2)ccn1C)OCCOCCOCCOC,1.8039682286631435,-0.2694917022294247,0.0,H33C21N3O4
CC(=O)c1cc(cs1)Cl,5.375521060691971,1.292368633393926,0.0,H5C6SClO
Cc1cc(OCCOC)sc1,4.099527420201047,-0.7198229592126153,0.0,H12C8SO2
Cc1ccsc1C,4.484238716174877,-0.3697476677465601,0.0,H8C6S
c1csc(c1N)Cl,3.980685720312613,1.1930707861480188,0.0,H4C4SNCl
CCc1cc(C=C)sc1,4.328351835587091,0.4435862200567499,0.0,H10C8S
C=Cc1c(ccs1)C(Cl)(Cl)Cl,4.7187520577586834,2.9450866749553826,0.0,H5C7SCl3
CCc1ccc(C(Br)(Br)Br)s1,4.927304852020461,3.288132114970358,0.0,H7C7SBr3
CCc1c(ccs1)NC,3.50457802281162,-0.4886609716653765,0.0,H11C7SN
C#Cc1cc(cs1)C(F)(F)F,5.133536243179696,0.8234919257716684,0.0,H3C7SF3
CCc1ccsc1C(=O)C,5.164574589803669,0.9658363319191268,0.0,H10C8SO
CC(=O)c1c(ccs1)C(Br)(Br)Br,5.470790213579312,3.2347242882766296,0.0,H5C7SBr3O
C=Cc1c(ccs1)C(F)(F)F,4.791745672498655,0.9698612547814264,0.0,H5C7SF3
C=Cc1cc(cs1)c1ccccc1,4.300686312778998,0.5780824685258268,0.0,H10C12S
CC(=O)c1c(ccs1)OC,4.812865654746565,1.0382707935365034,0.0,H8C7SO2
CC(=O)c1ccc(c2ccccc2)s1,4.625590913632186,1.3477208440286632,0.0,H10C12SO
c1cc(C(F)(F)F)sc1C(F)(F)F,6.01204469607328,1.106510805367725,0.0,H2C6SF6
c1c(csc1Cl)C(Br)(Br)Br,5.1709301813039925,2.743636468157638,0.0,H2C5SBr3Cl
c1ccc(cc1)c1cc(Cl)sc1,4.543407840408326,0.3506984333231231,0.0,H7C10SCl
C=Cc1cc(cs1)OC,4.112805731970729,0.5314541894673313,0.0,H8C7SO
CCc1c(ccs1)O,4.260667069321789,-0.4129304304973629,0.0,H8C6SO
c1ccc(cc1)c1cc(F)sc1,4.527364201685122,0.3054615566776193,0.0,H7C10SF
CC(=O)c1cscc1OCCOC,4.6897191710755575,0.8146156267808693,0.0,H12C9SO3
CC(=O)c1cc(cs1)N(C)C,3.810164617354167,1.0496863826789196,0.0,H11C8SNO
CC(=O)c1cc(cs1)O,4.853725939488504,1.135541765490052,0.0,H6C6SO2
CC(=O)c1ccc(C(=O)C)s1,5.992783498962671,1.837023281701113,0.0,H8C8SO2
CC(=O)c1ccc(C(C)(C)C)s1,5.003226106922375,1.0196844441903523,0.0,H14C10SO
C#Cc1ccsc1Cl,4.915169301389687,1.3101987157948316,0.0,H3C6SCl