smiles,IE,EA,charge,formula_pretty
COCCOc1c(ccs1)C(=O)O,4.657663755436806,0.6847713902330725,0.0,H10C8SO4
C=Cc1ccc(F)s1,4.41055949156871,0.6232922208706442,0.0,H5C6SF
COCCOc1ccc(Cl)s1,4.195827802906569,1.24868134437711,0.0,H9C7SClO2
CCc1c(ccs1)F,4.803531094277423,-0.1637602212271303,0.0,H7C6SF
CCc1ccc(N(=O)=O)s1,5.502158898243215,2.096803751047992,0.0,H7C6SNO2
CCc1c(ccs1)N,3.71090542931197,-0.5379735476220957,0.0,H9C6SN
CCc1cc(cs1)N(=O)=O,5.353119122935459,1.961101121245156,0.0,H7C6SNO2
Cn1ccc(=c2ccn(cc2)COCCOCCOCCOC)cc1OCCOCCOC,1.8839218242297648,-0.3244952942099188,0.0,H38C24N2O7
CC(=O)c1ccsc1C(C)(C)C,4.936610693615512,0.7087821085384349,0.0,H14C10SO
CC(=O)c1ccc(N(C)C)s1,3.84426860937092,0.7620102339147707,0.0,H11C8SNO
c1cc(Cl)sc1C(Br)(Br)Br,5.095831727923359,3.1469627479906195,0.0,H2C5SBr3Cl
COc1ccc(Cl)s1,4.182413670956157,1.25067117682338,0.0,H5C5SClO
C=Cc1c(ccs1)F,4.538086727765039,0.5849176797142719,0.0,H5C6SF
C=Cc1ccc(C(F)(F)F)s1,4.843276403456548,1.0212217676467843,0.0,H5C7SF3
C#Cc1ccc(OC)s1,4.138887911428901,0.5295663316843275,0.0,H6C7SO
CCc1cc(cs1)C(F)(F)F,5.1219147808711565,0.1546624892085675,0.0,H7C7SF3
CCc1ccc(C(F)(F)F)s1,5.1832784732810975,0.4126220815938723,0.0,H7C7SF3
c1c(csc1F)C(Br)(Br)Br,5.209864055179059,2.803358182188822,0.0,H2C5SBr3F
CC(=O)c1ccsc1N(=O)=O,5.92521673213705,2.447644528679666,0.0,H5C6SNO3
CC(=O)c1cscc1N(=O)=O,5.716876937674533,2.107121026152163,0.0,H5C6SNO3
C=Cc1ccc(C(=O)C)s1,4.733763633999478,1.419788746535778,0.0,H8C8SO
CC(=O)c1cc(Cl)sc1,5.195633078301034,0.9362448336192756,0.0,H5C6SClO
COCCOc1cccs1,4.191642430841602,-0.1111456608508887,0.0,H10C7SO2
C=Cc1cc(cs1)C(F)(F)F,4.782961127567978,0.7532201977352089,0.0,H5C7SF3
C=Cc1c(ccs1)N(C)C,3.5459275355875435,0.4308972007362173,0.0,H11C8SN
CCc1ccc(OCCOC)s1,3.9862370766401,-0.3225772263525868,0.0,H14C9SO2
CCc1ccc(c2ccccc2)s1,4.173706131523067,0.4324406168212591,0.0,H12C12S
CC(=O)c1c(ccs1)c1ccccc1,4.854811831531697,1.205527812091168,0.0,H10C12SO
C=Cc1cc(cs1)N(=O)=O,4.961426199484412,2.0108129698361155,0.0,H5C6SNO2
C#Cc1c(ccs1)c1ccccc1,4.547442415152181,0.7922900604986354,0.0,H8C12S
CC(=O)c1ccsc1C(Br)(Br)Br,5.411842290655477,2.8778296117612627,0.0,H5C7SBr3O
CC(=O)c1cc(C(Cl)(Cl)Cl)sc1,5.591223858334706,2.872250614114455,0.0,H5C7SCl3O
CC(=O)c1ccc(OCCOC)s1,4.551524617976247,0.9695078170021588,0.0,H12C9SO3
CCc1ccsc1C=C,4.3022357861205816,0.4547088215054828,0.0,H10C8S
C=Cc1ccc(CC)s1,4.229849390687013,0.4295282776489331,0.0,H10C8S
C#Cc1cc(CC)sc1,4.718029195509734,0.2648969698762813,0.0,H8C8S
C#Cc1cc(cs1)N(=O)=O,5.32109532964896,2.0767034337746737,0.0,H3C6SNO2
c1csc(c1C(F)(F)F)F,5.356798330610763,0.7793947571168247,0.0,H2C5SF4
C#Cc1ccc(C(F)(F)F)s1,5.188919246212754,1.0720349888411875,0.0,H3C7SF3
COc1cc(cs1)C(F)(F)F,4.596230366508825,0.2199487080448308,0.0,H5C6SOF3
COc1cc(cs1)C(Br)(Br)Br,4.51614405834116,3.1313470028631856,0.0,H5C6SBr3O
CC(C)(C)c1cc(cs1)C(Br)(Br)Br,4.994900928251445,2.7270199373248034,0.0,H11C9SBr3
[N]1[P@](=O)(C(F)(F)F)C(=O)C(=O)[P@]1(=O)C(F)(F)F,5.024795920553151,3.159753586916486,-1.0,P2C4N(O2F3)2
c1cc2c(cc1)ncc(n2)C,5.34219556731623,1.1928145256584686,0.0,H8C9N2
c1(cc2c(c(c1)OC)nccn2)C,4.530176408410261,1.2176619504767587,0.0,H10C10N2O
c1cc2c(cc1)C(=O)c1c(C2=O)cc(cc1C)N,4.488285870740219,1.958705833736167,0.0,H11C15NO2
c1cc(ccn1)c1ccnc(c1C)C(=O)O,5.832093640410312,1.1548547240869085,0.0,H5C6NO
[C@@H]1(C[C@H](CSC1)C)C(Cl)(Cl)Cl,4.894925547466846,2.466791465188726,0.0,H11C7SCl3
[C@@H]1(C[C@H](CSC1)CC)CC,4.597526466493582,-0.8604851630538177,0.0,H18C9S
c1cc(c(cn1)NC(=O)C)c1ccncc1C,5.096581605639221,0.8507198242237792,0.0,H13C13N3O
[C]([N][CH]C=C=c1ccncc1=C(Cl)Cl)C(Cl)(Cl)Cl.[CH]Cl,4.348782471840968,4.19347248620179,0.0,H3C6NCl3
[N](P(=O)(C(F)(F)F)C(F)(F)F)P(=O)(C(F)(F)F)C(F)(F)F,6.181493229678017,-0.7012245579448062,-1.0,P2C4N(OF6)2
CCc1ccsc1,4.814115378363203,-0.4624133796482055,0.0,H8C6S
C1C(CCSC1)C(=O)O,4.803170216904254,-0.0658287255850154,0.0,H10C6SO2
c1(cc(ccn1)c1ccncc1)N(=O)=O,5.780612045045563,2.2232324310221885,0.0,H7C10N3O2
C1CC[C@@](SC1)(N)C,4.209934412874281,-0.9914715185281238,0.0,H13C6SN
C1CC[C@H](S[C@H]1C(=O)O)C,4.916408725502697,1.0102078403011547,0.0,H12C7SO2
c1c2c(ccn1)c1ccncc1o2.O,5.366019343413063,1.113427971800411,0.0,H4C5NO
CN(C)c1cc(N(C)C)sc1,3.090081717507565,-0.8053671308720367,0.0,H14C8SN2
CN(C)c1cscc1N(C)C,3.598776094817004,-1.0172626395818951,0.0,H14C8SN2
c1cc(ccn1)c1c(cnc(c1)C)C=C,4.874994022416649,1.0383953999022195,0.0,H12C13N2
COc1c(ccs1)N(=O)=O,5.009511667203332,1.8940302574024828,0.0,H5C5SNO3
c1ccc(cc1)c1ccsc1F,4.580186643428169,0.5052289352766821,0.0,H7C10SF
c1cc(N(=O)=O)sc1F,5.782106420779746,2.2058247618166207,0.0,H2C4SNO2F
c1c(c2c(cc1)C(=O)c1c(C2=O)cccc1)C=C,5.129788041043502,2.158393570056069,0.0,H5C8O
c1(cc2c(cc1)C(=O)c1c(C2=O)cc(cc1)C=C)C,5.131568419301038,2.188877765014331,0.0,H12C17O2
c1cc(c(cn1)C)c1ccnc(c1)CC,5.642378147012641,0.8520711061697512,0.0,H14C13N2
c1(cc2c(cc1)C(=O)c1c(C2=O)cc(cc1)N(=O)=O)C,5.784052097312815,2.6147213670534257,0.0,H9C15NO4
COCCOc1ccc(OC)s1,3.671580266620004,-0.0490908101732201,0.0,H12C8SO3
c1csc(c1C(=O)O)O,4.735133294512343,0.8329600805314841,0.0,H4C5SO3
CC(C)(C)c1c(ccs1)OC,4.09917615933009,-0.5430550286568177,0.0,H14C9SO
C#Cc1ccc(c2ccccc2)s1,4.320683716597705,0.9279616149011418,0.0,H8C12S
[N]([P@](=O)(C(F)(F)F)F)S(=O)(=O)C(F)(F)F,5.90924577229598,-0.740805670908594,-1.0,PC2SNO3F7
c1c(c(ccn1)c1ccncc1)OC,4.932522585922561,1.0296016384796531,0.0,H10C11N2O
c1c(c(ccn1)c1ccncc1)F,5.831003506116394,1.1659229272605445,0.0,H7C10N2F
c1c(c2c(cc1)nccn2)F,5.360259308426612,1.4024178018167732,0.0,H5C8N2F
c1c(c2c(cc1)C(=O)c1c(C2=O)cccc1)OC,4.941306564849219,2.1466504538162554,0.0,H10(C5O)3
[C@@H]1(CC[C@H](SC1)C#N)C#N,5.415362747143808,1.2073987960953674,0.0,H8C7SN2
c1cc(ccn1)c1ccnc(c1C#C)C#C,5.3680463683791455,1.2479970950786083,0.0,H4C7N
c1(cc2c(c(c1)NC)nccn2)C,3.806225818517851,1.097646411356982,0.0,H11C10N3
C1CC[C@@](SC1)(C)C=C,4.292634467013704,1.321720483757963,0.0,H14C8S
c1cc(ccn1)c1c(cncc1C#N)C#N,5.872379514612112,1.7423794953916514,0.0,H3(C3N)2
c1cc(ccn1)c1cc(nc(c1)C)CC,5.421536732590175,0.992677464082226,0.0,H14C13N2
C1C(CCSC1)(N(C)C)N(C)C,3.5087938607444813,-0.9767932790186022,0.0,H20C9SN2
c1cc2c(cc1)C(=O)c1c(C2=O)cc(cc1N)C,4.442054798969911,2.01403694194014,0.0,H11C15NO2
CCc1cc(cs1)OC,4.171600656141527,-0.3910116118189761,0.0,H10C7SO
c1csc(c1C(F)(F)F)N(=O)=O,6.142786962701939,2.4850395144399955,0.0,H2C5SNO2F3
C(F)(F)(F)S(=O)(=O)[N][Si](=O)C(F)(F)F,5.819207861016912,1.656814139672497,-1.0,SiC2SN(OF2)3
[N]([Si](F)(F)C(=O)C(F)(F)F)[Si](F)(F)C(=O)C(F)(F)F,5.396694328266312,1.539668073639041,-1.0,Si2C4N(OF5)2
P(F)(F)(F)(F)(F)F.CC#N,6.7136812817931055,-0.800896643361193,-1.0,PH3C2NF6
c1(cc(ccn1)c1ccncc1)O,5.374989665900648,1.08344839562742,0.0,H8C10N2O
c1cc(ccn1)c1c(cncc1C#C)C,5.421500693829875,0.9868494523412664,0.0,H10C13N2
c1(cc2c(cc1)nc(cn2)C(=O)O)C,5.486284152420557,1.7343124466256996,0.0,H4C5NO
C1=NC=C[C]([C@@]1(O)C)c1ccncc1[CH2],3.827869094724156,2.1699577251907614,0.0,H12C12N2O
c1(cc2c(cc1OC)nccn2)C,4.848277951048294,1.087151810550131,0.0,H10C10N2O
COc1ccc(OC)s1,3.642372903270007,-0.0340329228842164,0.0,H8C6SO2
c1(cc(cs1)C(=O)O)C,5.05383463591861,0.6750197037414183,0.0,H6C6SO2
c1cc2c(cc1)C(=O)c1c(C2=O)cc(c(c1)N(=O)=O)C,6.093105272493267,2.544253360579751,0.0,H9C15NO4
c1cc2c(cc1C#C)C(=O)c1c(C2=O)cc(cc1)C,5.491209486366278,2.250786060617975,0.0,H10C17O2
[C@@H]1(CC[C@H](SC1)N(C)C)C,4.068029973992088,-0.8445797880944155,0.0,H17C8SN
c1ccc(cc1)c1ccc(C(Cl)(Cl)Cl)s1,4.626121826784219,2.9672127708996414,0.0,H7C11SCl3
C#Cc1cc(cs1)OC,4.365246692440996,0.6606818759260933,0.0,H6C7SO
c1ccc(cc1)c1cc(cs1)C(Br)(Br)Br,4.620461186795728,3.0452528810070363,0.0,H7C11SBr3
c1(cc(ccn1)c1ccncc1)C(Cl)(Cl)Cl,5.905849070493423,2.733698258534423,0.0,H7C11N2Cl3
C1CCCCC1,6.10870792897058,-1.152409498637462,0.0,H2C
C1CC[C@H](S[C@H]1C#N)C,5.1271142504643645,0.951173042341543,0.0,H11C7SN
c1(cc2c(c(c1)CC)nccn2)C,4.980776149240773,1.129600565267174,0.0,H12C11N2
C1[C@H](C[C@H](SC1)C(=O)O)C(=O)O,4.842536400750396,0.919264304231183,0.0,H10C7SO4
c1c(c2c(c(c1)C#C)nccn2)C#C,4.940058019484786,1.6973613737769484,0.0,H3C6N
C1CC[C@H](S[C@H]1CC)CC,4.614826373171672,-0.9081446991389384,0.0,H18C9S
C1C[C@H]([C@H](SC1)CC)C,4.601310174040554,-0.9194405554721016,0.0,H16C8S
c1cc(ccn1)c1c(cncc1N)C,4.329739099151629,0.6646420955563372,0.0,H11C11N3
Cc1cc(C)sc1,4.527508299570036,-0.3888549871939175,0.0,H8C6S
c1cc(cc(n1)C)c1ccnc(c1)C#N,5.618291073563887,1.3970469739775582,0.0,H3C4N
[N]1[Si](F)(C(=O)C(=O)[Si]1(F)F)F,4.284060467443487,2.461470246418321,-1.0,Si2C2N(OF2)2
c1cc2c(cc1)ncc(n2)N(=O)=O,5.809008454741706,2.518512792839465,0.0,H5C8N3O2
C1C(CCSC1)C#N,4.891032915472897,-0.5612565981486113,0.0,H9C6SN
C1C(CCSC1)C,4.65853812794885,-0.9324899895713314,0.0,H12C6S
c1(cc2c(cc1)nccn2)C(=O)O,5.630061390305491,1.646825330467982,0.0,H6C9(NO)2
c1cc(ccn1)c1cc(ncc1C#C)C,5.239981228432589,1.137144341840758,0.0,H10C13N2
c1(c(c2c(cc1)nccn2)N)N,3.6154964969842696,1.0550609194302525,0.0,H2C2N
c1cc(ccn1)c1cc(nc(c1)C)C#C,5.418607908757258,1.181395178622188,0.0,H10C13N2
C1[C@H](C[C@H](SC1)N(=O)=O)N(=O)=O,5.2479147400496,1.9769078086734224,0.0,H8C5S(NO2)2
C1CC[C@H](S[C@H]1N(C)C)C,3.965974568634556,-0.8891012910629796,0.0,H17C8SN
C1C[C@](CSC1)(C)F,4.8926872642092345,-0.9206833537959028,0.0,H11C6SF
c1cc(ccn1)c1cc(nc(c1)CC)CC,5.388808784876892,0.9812957068548712,0.0,H8C7N
C1CC(CSC1)(C)C,4.664788626361405,-0.9416728084783244,0.0,H14C7S
c1csc(c1C#N)O,4.892865566796536,0.6410316295019585,0.0,H3C5SNO
CN(C)c1ccsc1F,3.626108740767086,0.2033988205745118,0.0,H8C6SNF
COc1c(ccs1)C(F)(F)F,4.6240263053201485,0.3551149497667212,0.0,H5C6SOF3
Cc1c(ccs1)C(Br)(Br)Br,4.989999077742686,3.053270571044413,0.0,H5C6SBr3
c1csc(c1C(Br)(Br)Br)N(=O)=O,5.953153457224834,2.9217239304212854,0.0,H2C5SBr3NO2
C=Cc1c(ccs1)OCCOC,4.031236310832901,0.4075469217619685,0.0,H12C9SO2
c1cc(N(=O)=O)sc1C(Cl)(Cl)Cl,6.010740073486522,2.9738137764303247,0.0,H2C5SNCl3O2
CC(C)(C)c1cc(cs1)F,4.813055522173817,-0.1824396226169482,0.0,H11C8SF
[N]([P@](=O)(C(F)(F)F)F)[P@](=O)(F)C(F)(F)F,6.040333528276824,-0.7667248841156833,-1.0,P2C2N(OF4)2
c1c(c(ccn1)c1ccncc1)N(C)C,4.09328125928514,0.903344014708273,0.0,H13(C4N)3
c1c(ccs1)F,5.124365136054257,-0.0679613279993645,0.0,H3C4SF
C1[C@H](C[C@H](SC1)C)N,4.72752505417302,-0.7660119104861223,0.0,H13C6SN
c1cc(ccn1)c1cc(nc(c1)C#C)C#C,5.465932372023962,1.35789568930486,0.0,H4C7N
c1c(c2c(c(c1)OC)nccn2)OC,4.102213142968685,1.290684055538441,0.0,H5C5NO
C1[C@H](C[C@H](SC1)C)c1ccccc1,4.757434963759442,-0.6471964505348295,0.0,H16C12S
c1cc2c(cc1)C(=O)c1c(C2=O)cc(c(c1)N(C)C)N(C)C,3.714064787987445,1.9888751303966277,0.0,H9C9NO
C1[C@H]([C@H](CSC1)C(=O)O)C(=O)O,4.930973256801371,-0.4142147588376246,0.0,H10C7SO4
[C@@H]1(C[C@H](CSC1)N(C)C)C,3.835913626067486,-0.8349574427506012,0.0,H17C8SN
c1cc(ccn1)c1cc(ncc1NC)C,4.051136028503242,0.8808952896994016,0.0,H13(C4N)3
CCc1ccc(OC)s1,3.9649829123387454,-0.1939808929841091,0.0,H10C7SO
C#Cc1c(ccs1)NC,3.744041972274863,0.4175246858736501,0.0,H7C7SN
c1csc(c1N)F,3.940978945179813,0.1571278024945059,0.0,H4C4SNF
c1csc(c1C(Br)(Br)Br)F,5.191948801098624,3.116576554917265,0.0,H2C5SBr3F
C#Cc1ccc(C(Br)(Br)Br)s1,4.965004534571198,3.007590303948382,0.0,H3C7SBr3
CC(C)(C)c1cc(cs1)Cl,4.811645507173671,-0.1099520334959378,0.0,H11C8SCl
C(S([O])([O])[O])(F)(F)F.C1(=O)OC[C@@H](O1)C,6.033698543893115,-0.8023458536394172,-1.0,H6C5S(O2F)3
C(S([O])([O])[O])(F)(F)F.C(=O)N(C)C,5.137151381642616,-1.0097473750924109,-1.0,H7C4SNO4F3
c1ccc(cc1)c1cccs1,4.356781269017665,0.4885347458344768,0.0,H8C10S
c1(cc2c(cc1)C(=O)c1c(C2=O)cccc1)OC,5.129737348955677,2.0970684171312315,0.0,H10(C5O)3
c1(cc2c(cc1)C(=O)c1c(C2=O)cccc1)C#C,5.520932804772746,2.2831117179499416,0.0,H4C8O
c1(cccs1)N(=O)=O,5.845518333100335,2.174459244555328,0.0,H3C4SNO2
O(C(C)(C)C)C,5.567655322298014,-1.0512329175784545,0.0,H12C5O
P(=O)(N(C)C)(N(C)C)N(C)C,4.318868488718726,-0.9297662552220572,0.0,PH18C6N3O
c1cc(ccn1)c1ccnc(c1C)C,5.4390117690141775,0.797407876894431,0.0,H6C6N
c1cc(ccn1)c1ccnc(c1C)NC,4.196413413655682,0.8142891718103784,0.0,H13(C4N)3
COc1cc(OC)sc1,3.90313710223345,-0.0685007501473591,0.0,H8C6SO2
C1[C@H]([C@H](CSC1)C)C,4.601494501237175,-0.844979542371584,0.0,H14C7S
C1CC(CSC1)(N(=O)=O)N(=O)=O,5.217802162800217,2.4605240385659277,0.0,H8C5S(NO2)2
C1CC(CSC1)(NC)NC,3.9571050017380913,-0.8245692194090224,0.0,H16C7SN2
c1cc(c(cn1)NC(=O)C)c1ccnc(c1)NC(=O)C,5.215220545343618,1.1289854519360234,0.0,H7C7N2O
c1cc(c(cn1)C)c1ccncc1NC,4.198879325589223,0.6201857747342729,0.0,H13(C4N)3
c1cc(F)sc1C(F)(F)F,5.444821023954864,0.7388495121682355,0.0,H2C5SF4
COc1c(ccs1)C#N,4.716075502504827,0.5884748007934832,0.0,H5C6SNO
C#Cc1cc(cs1)c1ccccc1,4.516648783218988,0.6161831243894995,0.0,H8C12S
c1csc(c1N)N(=O)=O,4.831440950825344,1.7251058068774,0.0,H4C4S(NO)2
[N]([Si](C(F)(F)F)(F)F)[Si](F)(F)C(F)(F)F.[Mg],2.854291875126364,0.92098327884014,-1.0,MgSi2C2NF10
[N]([Si](C(F)(F)F)(C(=O)C)C(=O)C)[Si](C(F)(F)F)(C(=O)C)C(=O)C,4.073887047490279,0.9094226269677166,-1.0,Si2H12C10N(O2F3)2
c1(cc2c(cc1)C(=O)c1c(C2=O)cccc1)C#N,6.1124528330889,2.4316334837472824,0.0,H7C15NO2
C1C(CCSC1)c1ccccc1,4.77162384734911,-0.679187339816417,0.0,H14C11S
c1(cc2c(c(c1)C#C)nccn2)C,5.027273274874096,1.4196264170273936,0.0,H8C11N2
c1cc2c(cc1)C(=O)c1c(C2=O)cc(cc1N)N,4.311604858781356,1.93250483849406,0.0,H5C7NO
c1cc(c(cn1)C)c1ccncc1C(=O)O,2.583815792929818,2.4673436739591126,0.0,H5C6NO
c1cc(cc(n1)C(=O)O)c1ccncc1C(=O)O,2.88735170220898,2.4728964996989817,0.0,H4C6NO2
C1C[C@](CSC1)(C)O,4.748697712218563,-0.6249081720183312,0.0,H12C6SO
C1=C[C](CC=N1)c1c(cnc(c1)NC)[NH]=C,2.436165387347137,1.5142939860867046,0.0,H7(C3N)2
CC(C)(C)c1cc(cs1)N(=O)=O,5.325275722030346,1.9507013820417345,0.0,H11C8SNO2
c1cc2c(cc1)ncc(n2)CC,5.31286184517703,1.186156983041292,0.0,H5C5N
c1cc2c(cc1)ncc(n2)NC,4.391388097475646,0.9090980223732914,0.0,H3C3N
c1c(c2c(cc1)C(=O)c1c(C2=O)cccc1)C#N,6.13125715922215,2.408141177680227,0.0,H7C15NO2
c1c(c2c(cc1)nccn2)N(C)C,3.8415649542963366,1.1450701689660492,0.0,H11C10N3
C1[C@H](C[C@H](SC1)C)N(=O)=O,4.787594355476903,1.6984454127210484,0.0,H11C6SNO2
C1[C@H](C[C@H](SC1)C)NC(=O)C,4.597855245317623,-0.7510332409750844,0.0,H15C8SNO
c1(cc2c(c(c1)N(C)C)nccn2)C,3.814199126785388,1.0809910824933469,0.0,H13C11N3
c1c(c2c(cc1)nc(cn2)OC)C,4.914622379786669,1.022237078802937,0.0,H10C10N2O
CCc1cc(C)cs1,4.5498262602683095,-0.4590369829769769,0.0,H10C7S
C=Cc1cc(C=C)sc1,4.28253639865361,0.6588105436145271,0.0,H8C8S
c1(cc(ccn1)c1ccncc1CC)CC,5.630231292741518,0.8088969449396246,0.0,H8C7N
C#Cc1cc(cs1)C(Cl)(Cl)Cl,5.0691595920594406,2.643563901948801,0.0,H3C7SCl3
CCc1c(ccs1)OC,4.125828966950939,-0.3898286703755729,0.0,H10C7SO
C#Cc1cc(cs1)C(Br)(Br)Br,5.027187409368343,2.7290941821644084,0.0,H3C7SBr3
C1C(CCSC1)CC,4.65360517480949,-0.967256641374115,0.0,H14C7S
c1c(c(ccn1)c1ccncc1)NC(=O)C,5.007235151942586,1.021233977402153,0.0,H11C12N3O
C1C(CCSC1)OC,4.72199158389194,-0.8304575832793488,0.0,H12C6SO
C1CC[C@@](SC1)(C(=O)O)C,4.845203108210262,1.1335302482890257,0.0,H12C7SO2
c1(cc(ccn1)c1ccncc1C)F,5.652477290217211,1.05354662769023,0.0,H9C11N2F
c1c(c2c(cc1)nc(cn2)C#C)C,5.153408172583658,1.474002865530201,0.0,H8C11N2
[C@@H]1(CC[C@H](SC1)C#N)C,5.121801720293297,0.995016165515699,0.0,H11C7SN
c1cc2c(cc1F)C(=O)c1c(C2=O)cc(cc1)F,5.883956674069486,2.3183218554419,0.0,H3C7OF
c1(cc2c(cc1)ncc(n2)C)c1ccccc1,4.828595031916484,1.2443039198020416,0.0,H12C15N2
c1(cc2c(cc1)nc(cn2)N(C)C)N(C)C,3.3950238349112625,0.8357891283754726,0.0,H4C3N
c1cc2c(cc1NC)C(=O)c1c(C2=O)cc(cc1)NC,4.188238020049175,1.7868920131673804,0.0,H7C8NO
C1CC(CSC1)(C#C)C#C,4.963731098936114,0.1508802347467281,0.0,H10C9S
COc1ccc(F)s1,4.173645316802867,0.2248008651382407,0.0,H5C5SOF
c1ccc(cc1)c1ccc(N(=O)=O)s1,4.950786374241579,2.2110041793435813,0.0,H7C10SNO2
Cc1cc(cs1)C(Br)(Br)Br,4.995412159385159,3.090403679839801,0.0,H5C6SBr3
c1csc(c1O)N(=O)=O,5.509711689950199,1.9179329873273676,0.0,H3C4SNO3
[N]([Si@@](C(F)(F)F)(F)C(=O)C)[Si@](C(F)(F)F)(F)C(=O)C,4.581927801920392,0.7421155204225216,-1.0,Si2H6C6N(OF4)2
c1(cc(ccn1)c1ccncc1)C(=O)O,5.907210730865335,1.3733513172388483,0.0,H8C11(NO)2
c1(ccsc1)c1ccccc1,4.508290923678578,0.2113777017308167,0.0,H8C10S
c1c(c(ccn1)c1ccncc1)C=C,5.0821932435570485,1.0161911283663358,0.0,H5C6N
c1c(c(ccn1)c1ccncc1)C(=O)O,5.834630323710007,1.3700283637241228,0.0,H8C11(NO)2
C1CCCSC1,4.757098046011015,-1.0943968554987804,0.0,H10C5S
[C@@H]1(CC[C@H](SC1)N)N,4.379886253687436,-0.7393553585774497,0.0,H12C5SN2
COCCOCCOC,5.356950376937311,-1.3765819483563972,0.0,H14(C2O)3
C1CC[C@@](SC1)(NC)C,4.497109605499281,-0.9922534675737552,0.0,H15C7SN
c1cc(ccn1)c1c(cncc1C#N)C,5.866532547422684,1.285265134292422,0.0,H3C4N
c1c(c(cs1)C)C(=O)O,5.138835668350657,0.6481371286405193,0.0,H6C6SO2
c1cc(c(cn1)CC)c1ccnc(c1)C,5.619143606223224,0.8253868612388033,0.0,H14C13N2
c1c(c(ccn1)c1ccncc1NC)NC,4.134330853628489,0.5234570304251975,0.0,H7(C3N)2
c1cc2c(cc1)C(=O)c1c(C2=O)cc(c(c1)O)C,5.169766736814927,2.094250466083031,0.0,H10(C5O)3
Cc1ccc(C(Br)(Br)Br)s1,4.925972903723595,3.278804866212886,0.0,H5C6SBr3
c1csc(c1C(Cl)(Cl)Cl)F,5.248431851579516,2.9792730766508613,0.0,H2C5SCl3F
[O]CC,4.378492869121146,0.1618414279882927,-1.0,H5C2O
C1C(CCSC1)C=C,4.704765501691872,-0.872978344761941,0.0,H12C7S
c1(cc(ccn1)c1ccncc1)NC(=O)C,5.047423753612383,1.1161070985304833,0.0,H11C12N3O
c1(cc(ccn1)c1ccncc1C#C)C,5.471952901590703,1.1454568318455132,0.0,H10C13N2
c1cc(ccn1)c1ccnc(c1C)C#C,5.407210700902942,1.0140378289775982,0.0,H10C13N2
c1(cc(ccn1)c1ccncc1CC)C,5.627732457761885,0.8256641751700955,0.0,H14C13N2
c1(cc2c(cc1C)nccn2)C#C,5.2186511062715,1.4019750508337894,0.0,H8C11N2
CCc1cc(cs1)c1ccccc1,4.364202172584191,0.1772739464555344,0.0,H12C12S
CCc1c(ccs1)c1ccccc1,4.474858478680835,0.0513756952655968,0.0,H12C12S
Cc1cc(cs1)C(F)(F)F,5.130838256239803,0.195187567803805,0.0,H5C6SF3
Cc1c(ccs1)C(F)(F)F,5.10850392517168,0.2054985080991174,0.0,H5C6SF3
[N]([Si](=O)C(F)(F)F)[Si](=O)C(F)(F)F,5.706005603425728,1.302353238448268,-1.0,Si2C2N(OF3)2
c1c(c(ccn1)c1ccncc1)C,5.7041628675575335,0.9076775201079728,0.0,H10C11N2
n1ccccc1,5.573706366708029,0.0723843285300973,0.0,H5C5N
N#CC,7.986956894155901,-0.7845381199494113,0.0,H3C2N
OC(C)C,6.076871360889163,-0.970022425476054,0.0,H8C3O
c1cc(cc(n1)F)c1ccncc1F,5.962821240116318,1.301539879300981,0.0,H3C5NF
c1cc(ccn1)c1cc(nc(c1)O)C,5.141962063154642,1.0422183979695547,0.0,H10C11N2O
[C@@H]1(C[C@H](CSC1)C)N,4.5211893155479626,-0.7576336151891154,0.0,H13C6SN
c1cc(ccn1)c1cc(nc(c1)C=C)C,5.0385222514356425,1.0383071316187853,0.0,H12C13N2
c1cc2c(cc1)nc(c(n2)OC)C,4.979178155280897,0.9168627608283716,0.0,H10C10N2O
c1(cc2c(cc1)nc(cn2)N)C,4.41827103993055,0.970502123687402,0.0,H3C3N
[C@@H]1(C[C@H](CSC1)F)C,4.900236844967003,-0.8245685799360216,0.0,H11C6SF
[C@@H]1(C[C@H](CSC1)NC)C,4.203553890308831,-0.8493664909241487,0.0,H15C7SN
c1csc(c1C(=O)O)C(=O)O,5.585056460769556,1.615402097862534,0.0,H4C6SO4
[C@@H]1(C[C@H](CSC1)C)C#C,4.816252519636327,-0.8252004554873564,0.0,H12C8S
C#Cc1c(ccs1)C(Cl)(Cl)Cl,5.03801052775234,3.062917082804779,0.0,H3C7SCl3
COc1c(ccs1)C(Br)(Br)Br,4.514403672592016,3.010717302846024,0.0,H5C6SBr3O
c1cc(N(=O)=O)sc1C(Br)(Br)Br,5.829861082421848,3.1658358917571605,0.0,H2C5SBr3NO2
c1cc(N(=O)=O)sc1C(F)(F)F,6.277745910834346,2.4854930329653144,0.0,H2C5SNO2F3
COCCOc1ccc(F)s1,4.186330850343074,0.2078541540628067,0.0,H9C7SO2F
C=Cc1ccc(OCCOC)s1,3.8937029834756687,0.4232115821047046,0.0,H12C9SO2
[N]([P@](=O)(C(F)(F)F)C(=O)C)[P@](=O)(C(=O)C)C(F)(F)F,4.938453200914955,1.1712109671803774,-1.0,P2H6C6N(O2F3)2
S(=O)(=O)(C(F)(F)F)[N]S(=O)(=O)C(F)(F)F.C(=O)N(C)C,5.706201876420527,-1.0184765339712611,-1.0,H7C5S2N2O5F6
P(F)(F)(F)(F)(F)F.C1(=O)OC[C@@H](O1)C,6.999826912660501,-0.7901428377939737,-1.0,PH6C4(OF2)3
c1(cc(ccn1)c1ccncc1)NC,4.3103720824106855,0.95337882161366,0.0,H11C11N3
c1c(ccs1)C=C,4.547644424300961,0.3123815449303948,0.0,H6C6S
c1[c]c(cc(n1)C)c1ccncc1[C](O)O,5.4497288038379335,1.3490416546679629,0.0,H5C6NO
c1(cc2c(cc1)nc(cn2)CC)C,5.15215876733564,1.1195299314309524,0.0,H12C11N2
Cc1ccc(NC)s1,3.3457743376617146,-0.3911919797559675,0.0,H9C6SN
[C@@H]1(C[C@H](CSC1)c1ccccc1)C,4.67972303655697,-0.5777038578838982,0.0,H16C12S