smiles,IE,EA,charge,formula_pretty
c1cc(ccn1)c1c(cncc1N(C)C)C,3.923392091733695,0.8227784786591656,0.0,H15C13N3
C(=O)(C(=O)O)CC,6.058208895861389,1.7363774777328218,0.0,H6C4O3
C(=O)(CCC)CCC,5.546937883494683,-0.0369803348061394,0.0,H14C7O
[C@H](CC(=O)O)(C(=O)O)N,5.301311823635478,0.1406786651692528,0.0,H7C4NO4
[C@H](CC(=O)OC)(C(=O)OC)C#N,6.751356204663898,0.2823888174985769,0.0,H9C7NO4
ClC1=C(Cl)C(=O)C(=C(C1=O)Cl)Cl,6.124095920285617,3.3448132778445143,0.0,C3Cl2O
C(O)c1cc(C)ccc1,5.087838669636403,-0.2470328600251377,0.0,H10C8O
c1cc2c(cc1C)C(=O)c1c(C2=O)c(ccc1)C(=O)O,5.961973349721665,2.59376156733706,0.0,H5(C4O)2
C(=C)(C=C)C=C,4.722424889804278,0.6088955647634067,0.0,H4C3
C1CC[C@@](SC1)(c1ccccc1)C,4.4333842561332855,-0.6014344458802952,0.0,H16C12S
C(CCCCC=C)CCCC(=O)O,5.481934448083484,-0.3711893431904172,0.0,H20C11O2
S([O])([O])(O)c1cc(N)ccc1,4.494958420431066,1.330808468273608,0.0,H7C6SNO3
Cc1ccc[nH]1,4.117573147376424,-0.8267936820097019,0.0,H7C5N
C1=C([CH]C=CN1[O])Cl,5.018910454696743,0.7369312021233783,0.0,H4C5NClO
c1c(c2c(cc1)nc(cn2)C)CC,5.026258728359244,1.121369429139668,0.0,H12C11N2
Clc1c(Cl)ccc(c1)Cl,5.406470349903975,1.3412681568675908,0.0,HC2Cl
c12c([nH]cc1)cccc2,4.204091257997424,-0.4703581214056611,0.0,H7C8N
Sc1cccs1,4.38608788589554,0.2621357980984613,0.0,H2C2S
S(CCCl)CCO,5.012524685780226,1.6187000386722503,0.0,H9C4SClO
c1cc(ccn1)c1ccnc(c1CC)C,5.41697366379376,0.7289120127439674,0.0,H14C13N2
CC1C(=O)CCCC1=O,5.6037756914643975,0.5457926431477973,0.0,H10C7O2
C(C(F)(F)F)(C(F)(F)F)C(=O)O,7.538846975903288,0.6401785662179464,0.0,HC2OF3
C1[C@H](C[C@H](SC1)N(C)C)N(C)C,3.7286510149220704,-0.8900205786871083,0.0,H20C9SN2
c1cc(ccn1)c1cc(ncc1N(C)C)C,3.967275387070549,0.8711215429444565,0.0,H15C13N3
Oc1c(C)cccc1C,4.535954038277486,-0.525868914539751,0.0,H10C8O
N(C(F)(F)F)(C(F)(F)F)C(F)F,7.73143314784611,-0.6906066868490597,0.0,HC3NF8
Oc1c2c(c(cc1C)O)cccc2,3.780506725995656,0.3198033002132434,0.0,H10C11O2
C(=O)c1c(O)ccc(c1)O,4.550145365446587,1.2722217193528196,0.0,H6C7O3
C(O)c1c(F)c(F)cc(c1F)F,5.599649974914064,0.5053971043467755,0.0,H4C7OF4
C(=O)(CCC(=O)C)OC,5.919704171084595,0.1343552212034411,0.0,H10(C2O)3
N(=O)(=O)c1cc(N(=O)=O)ccc1O,6.010281787517306,2.5060924696022995,0.0,H4C6N2O5
c1c(c(ccn1)c1ccncc1O)C,5.237467633991036,0.7421233709079389,0.0,H10C11N2O
Nc1cccnc1,4.336913813163482,-0.0369985963665384,0.0,H6C5N2
c1cc(cc(c1)N(=O)=O)N(=O)=O,6.973676394137874,2.3350971211999423,0.0,H2C3NO2
c1c(c2c(cc1)nc(cn2)C#C)C#C,5.1439319333290765,1.692084419768071,0.0,H3C6N
[C@@H](C(=O)O)(CCSC)N,4.949628717616724,-0.3885195225360802,0.0,H11C5SNO2
Cl[C@@H]1C(=O)CCCC1,5.788040567805728,2.2799814999467345,0.0,H9C6ClO
C(S([O])([O])O)CSSCCS([O])([O])O,5.267069875344168,1.76855737457081,0.0,H5C2S2O3
C(=O)c1c2c(ccc1)cccc2,4.853583395377063,1.3707226866714337,0.0,H8C11O
O=C1[CH]N([N]O1)c1ccc(cc1)OC,4.930718784101918,1.404220926071139,0.0,H8C9N2O3
S(CC)([O])([O])O,6.990439858718309,-0.2233150124069651,0.0,H6C2SO3
S(=O)(=O)(N)c1ccc(cc1)N,4.453281426818284,0.2329093241911324,0.0,H8C6S(NO)2
c12c(C=CC1)cccc2,4.494738859940844,-0.0714823939946653,0.0,H8C9
[C@H](CC=C)(O)c1cccs1,4.815177746169502,0.0375348316680175,0.0,H10C8SO
Cc1cc(C)nc(n1)N,4.758648760190772,0.1646259510158416,0.0,H3C2N
O(CC(=O)O)c1c(Cl)cc(cc1)Cl,4.923924047123,1.3221861957150396,0.0,H6C8Cl2O3
Cc1c(C)cc(cc1O)C,4.461748790413912,-0.5503594430141674,0.0,H12C9O
C(#N)c1c(C#N)c(O)ccc1O,5.133674221225737,1.4870164159743582,0.0,H2C4NO
C(CO)(C)(C)O,5.341923219460659,-0.5520412453137395,0.0,H5C2O
C(=O)(Cl)c1ccc(cc1)C,5.734514338988083,1.367719945841236,0.0,H7C8ClO
P(=O)(OC)(OC)OC,6.494930365608161,-0.78126634560831,0.0,PH9C3O4
S(Sc1ccccc1)c1ccccc1,4.641157852443575,2.004037686283118,0.0,H5C6S
C(CC=C)CCO,5.500725329072884,-0.5573866631661075,0.0,H12C6O
CC1=CC(=O)C=CC1=O,6.209619843948167,2.6859197243480595,0.0,H6C7O2
O=c1c2c([nH]c(=O)[nH]2)[nH]c(=O)[nH]1,4.492868792961962,0.5982750133458468,0.0,H4C5N4O3
O(C)c1c(Cl)c(Cl)c(cc1)Cl,5.017390268972667,1.470565294942935,0.0,H5C7Cl3O
C(=O)(O)c1c(O)ccc(c1)O,4.520538960754129,0.90324899527659,0.0,H6C7O4
C(=O)(OCC)C=C,6.126018867147286,0.810689426818135,0.0,H8C5O2
c1c2c(ccn1)c1ccncc1OCO2.C,5.185025577460328,1.190074657677178,0.0,H6C6NO
S(CCCC=O)CCCC=O,4.879819789910107,0.0545268252186361,0.0,H14C8SO2
O=C1CC(=O)NC(=O)N1,6.326067148860238,0.692234389812802,0.0,H4C4N2O3
Clc1c2c(cc3c1cccc3)cccc2,4.092300291618448,1.1516265723126708,0.0,H9C14Cl
N(=O)(=O)c1cc2c(cc1)[nH]nn2,5.919596223524058,2.113266192012452,0.0,H2C3N2O
FC1(F)C=CC(C=C1)(F)F,6.735592459519102,1.3676807832103806,0.0,H2C3F2
C(F)(F)(F)c1cc(C(=O)O)ccc1,6.183937682717078,1.1128323118842671,0.0,H5C8O2F3
c1cc2c(cc1O)C(=O)c1c(C2=O)c(ccc1)O,5.13221703528834,2.2401726766780485,0.0,H4C7O2
P(=O)(Cl)(N1C(=O)OCC1)N1C(=O)OCC1,6.244517347129294,1.938936589207151,0.0,PH8C6N2ClO5
C(=O)c1ccc(cc1)C,5.547945997239003,1.0456055839582403,0.0,H8C8O
O(S(=O)(=O)O)CC,7.049364905001857,1.6322874744852016,0.0,H6C2SO4
C(=O)(N)N,5.866680512040693,-0.6289835311767091,0.0,H4CN2O
C(#N)c1c2c(ccc1)cccc2,4.947429439148982,1.0821379688528396,0.0,H7C11N
[C@H](C(=O)OC)(OC)c1cc(OC)ccc1,4.763790019192674,0.7027750812609157,0.0,H14C11O4
[O]n1c2c(n(c3c1cccc3)[O])cccc2,4.178532282699598,2.1678055768403284,0.0,H4C6NO
[C@H](CC=C)(O)c1ccco1,4.858171738105375,-0.3242738942302821,0.0,H5C4O
c1c(c2c(cc1)ncc(n2)OC)C,4.882092876535898,1.0136350460721588,0.0,H10C10N2O
[C]([C](F)c1ccccc1)(Sc1ccccc1)OC,4.07671686542526,0.7193557094338758,0.0,H13C15SOF
C(=O)(CN=[N]=[N])c1ccc(cc1)C,5.413699889407871,1.2557928817237554,0.0,H9C9N3O
C(#CCCCC)c1ccccc1,4.805442519840289,0.1600796008948237,0.0,H7C6
C(=O)(O)c1c(Cl)cccc1Cl,5.649486650284961,0.9921035950479564,0.0,H4C7(ClO)2
C(=O)(OC)c1c(Cl)c(Cl)c(cc1)Cl,5.71405321782513,1.1626896053217934,0.0,H5C8Cl3O2
C(Cl)c1cc(CCl)c(c(c1C)C)C,4.899679890522384,2.502683008382155,0.0,H14C11Cl2
O(C)c1cc(Cl)ccc1,4.831790739559073,1.1609616008114243,0.0,H7C7ClO
C(=O)(O)c1c(C)c(C)c(c(c1C)C)C,4.736903256257937,0.2753474283759716,0.0,H8C6O
C(Cl)c1cc(CCl)ccc1,5.548784711959888,2.101502838662418,0.0,H4C4Cl
C[C@H]1c2c(OC1)cccc2,4.436727307976616,-0.4334570140985305,0.0,H10C9O
[S@@](=O)(CCCC)c1ccccc1,4.93874574233414,0.2520572185363563,0.0,H14C10SO
O=C1C(=O)CCCC1=O,5.463256235827066,2.8321010444647983,0.0,H2C2O
[CH](n1[c]c(c(c1)NC(=O)C)c1ccncc1NC=O)C,4.4555844514048655,2.129354857415456,0.0,H7C7N2O
S(OCC=C)([O])([O])c1ccc(cc1)C,5.786627456150745,1.398311647529772,0.0,H12C10SO3
C(C)(C)(c1ccc(cc1)O)c1ccc(cc1)O,4.368216828593722,-0.640932057993632,0.0,H16C15O2
S(CC(=O)OCC)c1ncccn1,5.1899026765109735,0.6104832700963017,0.0,H10C8S(NO)2
N([C@@H](OC)C)(C(=O)C)CC,5.214566946947889,-0.8886722845512849,0.0,H15C7NO2
c1cc2c(cc1)C(=O)c1c(C2=O)c(c(cc1)C)N(C)C,4.030311523792625,1.944288252072147,0.0,H15C17NO2
Cc1c(O)cccc1,4.663593020739063,-0.5193110200129012,0.0,H8C7O
C(#N)C1=C(C#N)C(=O)C=CC1=O,7.148598898019918,3.69513570854142,0.0,HC4NO
O(C(=O)OCC)[C@@H](CC)C,6.364616302745707,-0.9365160825240308,0.0,H14C7O3
C(=O)N1CCOCC1,5.159337407956263,-0.7138488141757988,0.0,H9C5NO2
O=C1c2c(C(=O)C=C1)c[nH]c2,5.212405505913557,2.186902409022514,0.0,H5C8NO2
O(C)c1c2[C@@H]3N(C(=O)Cc2ccc1)CCC3,4.676436206156359,-0.5039312574212089,0.0,H15C13NO2
O=c1n([C@@H]2O[C@@H](CC2)CO)ccc(n1)N,4.902541328088409,0.5538653926938424,0.0,H13C9(NO)3
[C@H](CCCCN)(C(=O)O)N,4.834636285669694,-0.4934132357760972,0.0,H7C3NO
O=S1OCCO1,6.411209702260384,1.501083452430612,0.0,H4C2SO3
OC1=CC(=O)C=CC1=O,5.881472353635763,2.7942227301005915,0.0,H4(C2O)3
Oc1c2c(ccc1)cccc2,4.242389588230799,0.3165138330274204,0.0,H8C10O
N([C@@H](CCC)C#N)(CC(F)(F)F)CCCC,4.599260833021253,0.2319216489173414,0.0,H19C11N2F3
O(C)c1c(OC)cccc1,4.285095248349171,-0.6911011040923767,0.0,H5C4O
C(CC(C)(C)Cl)c1ccccc1,5.222369403099583,1.756575078421156,0.0,H15C11Cl
C([N][N]C(C#N)(C)C)(C#N)(C)C,5.308753908544167,1.4736911400792452,0.0,H3C2N
C(=O)(OCC)[C@H]1C(=CC(=O)CC1)C,5.620139278916758,0.8675213190341311,0.0,H14C10O3
Oc1c2c(c(c(c1CC=C(C)C)O)O)cccc2,3.6548155099022552,0.2787771784074722,0.0,H16(C5O)3
C(=O)([C@@H]1[C@H](C1)C)c1ccc(cc1)[C@@H](CC[C@@H](O)c1ccccc1)C,5.299734074951266,0.8152455784780615,0.0,H13C11O
c1(c(ccs1)c1ccccc1)c1cccs1,4.102863274639821,0.7028079580573832,0.0,H5C7S
C(C(F)(F)F)N1C(C)(C)CCCC1(C)C,4.209653485269518,-0.9780941491539124,0.0,H20C11NF3
C(=O)c1cccs1,5.719529201332625,1.2572176997106,0.0,H4C5SO
[Si](O)(O)(O[Na])[Na],2.7458398788912746,1.0285349020887224,0.0,Na2SiH2O3
c1cc2c(c(c1)C)C(=O)c1c(C2=O)c(ccc1)N(C)C,4.127220108135225,1.8814012446215205,0.0,H15C17NO2
C(C)(C)(C)c1ccc(cc1)C=O,5.5212669796143015,1.048597627999334,0.0,H14C11O
O(C)c1ccc(cc1)c1nc(sn1)c1ccc(cc1)OC,4.415559289469092,1.0021178768307435,0.0,H14C16S(NO)2
C(=O)(OCC)[C@@H]1[C@@H](C(=O)OCC)CCCC1,5.867861222149804,-0.2775314198755949,0.0,H5C3O
C(CCCCCCCC)C(C)(C)S,5.303850332818547,-0.6679593296306847,0.0,H26C12S
O=C1c2c(C(=O)N1)cccc2,6.12295741231137,1.6438953855245928,0.0,H5C8NO2
C(S)c1cc(CS)c(cc1C)C,4.67092076068875,0.9896319551204216,0.0,H7C5S
O=[S@]1c2c(Nc3c1cccc3)ccc(c2)N(=O)=O,4.753717181226966,2.03442008072816,0.0,H8C12SN2O3
N(C(OC)(C)C)(C(C)C)C=O,5.454120408259405,-1.080553012252858,0.0,H17C8NO2
C(CC(=O)OC)(C(=O)OC)C(=O)OC,5.938064227838913,0.0520665923009802,0.0,H6C4O3
S(C#CSc1ccccc1)c1ccccc1,4.358935692239902,0.860213334542641,0.0,H5C7S
N(N)c1ccc(cc1)Cl.Cl,3.8192985482834048,2.2919345166388667,0.0,H4C3NCl
c1cc2c(cc1)C(=O)c1c(C2=O)c(ccc1C)N(C)C,4.04172372511457,1.858726765816391,0.0,H15C17NO2
C(COCCCC)OCCCC,5.185492290792899,-1.0535113784520944,0.0,H11C5O
C(C(=O)O)[C@@H]1CCCC=C1,5.154878542432561,-0.269004694646719,0.0,H6C4O
C(=C)(C)[C@H]1[C@@H](NC(=O)C)C=C(CC1)C,4.74468776922331,-0.6290935440796601,0.0,H19C12NO
Nc1[nH]cnn1,4.583498823958143,-0.5457363268564221,0.0,H2CN2
c1(cc2c(cc1)C(=O)c1c(C2=O)c(ccc1)OC)OC,5.126983039893821,2.060577377212758,0.0,H3C4O
S(CC(=O)NCCCCNC(=O)CS)c1sc(cc1)c1sc(cc1)SC,3.710567999989144,1.047687009931542,0.0,H22C17S5(NO)2
C(C)c1cc2c(cc1)cccc2,4.464153659047588,0.2657477555600054,0.0,HC
Oc1cc(O)ccc1,4.56286847518968,-0.6555070956077542,0.0,H3C3O
C(=O)c1c(C=O)cccc1,5.540697398875272,1.8434098098183316,0.0,H3C4O
c12c3c(Cc1cccc2)cccc3,4.493945035846627,0.1327676927408903,0.0,H10C13
Clc1c(Cl)cccc1,5.444438995169184,1.271876621861884,0.0,H2C3Cl
CC1(C)C[C@@H](C)CC(=O)C1,5.519371891764967,-0.0439410448947454,0.0,H16C9O
C(CN)c1ccc(cc1)O,4.404422170749603,-0.5453065502610115,0.0,H11C8NO
O=C1C[C@H](CCC1)[C@@H]1CC(=O)CCC1,5.458916575212788,-0.083709772187285,0.0,H9C6O
O(C)c1cc2c(cc1)cccc2,4.215017140191412,0.3145889351068036,0.0,H10C11O
N([C@@H](C(F)F)OC)(c1ccccc1)c1ccccc1,4.141407786258787,-0.2864370092014723,0.0,H15C15NOF2
[C@H](C=O)(C)c1ccccc1,5.274680523894494,0.3612508800939396,0.0,H10C9O
O(C(=O)C)C1CCCCC1,6.081084842314885,-0.9213188294073916,0.0,H7C4O
C(=O)(O)c1cc2c(cc1)[nH]nn2,5.624799427046673,1.0487617262511777,0.0,H5C7N3O2
C(=C)n1c(ccc1)c1ccco1,3.797369906294625,0.211800876846246,0.0,H9C10NO
CC1(C)N=C(OC1)c1cc(F)ccc1,5.151951375775388,0.644928237079148,0.0,H12C11NOF
P(=O)([C@@H](CC(=O)OCC)C)(OC)OC,6.169947722506185,-0.6239078434467955,0.0,PH17C8O5
Oc1c(O)cccc1,4.478671854803542,-0.4166539981710229,0.0,H3C3O
O(C)c1c2[C@@H]3N(C(=O)Cc2cc(c1O)OC)CCC3,4.260175588192942,-0.5741955567522381,0.0,H17C14NO4
O(C)[C@@H]1N(C=O)CCCCC1,5.37047586059416,-0.799546629465476,0.0,H15C8NO2
c1c(c2c(cc1)ncc(n2)N(=O)=O)C,5.453593587708019,2.47926882075044,0.0,H7C9N3O2
C(C(=O)O)C1=C(C)[C@H](C(=O)O)CCC1=O,5.598615457963751,0.9262391288626532,0.0,H12(C2O)5
C(S(=O)(=O)C=C(Cl)Cl)c1ccccc1,5.57178218717454,1.79540477078408,0.0,H8C9S(ClO)2
C(=O)(OC(C)C)c1ccccc1,5.730141469604495,0.6867069250798523,0.0,H6C5O
OC1CSCCCSC1,3.773725983840996,-0.4375926519227504,0.0,H12C6S2O
C(=O)(O)c1cc(O)ccc1,5.170989360619933,0.9303242841229804,0.0,H6C7O3
C(N)c1ccncc1,5.039455471287146,0.0867635122081993,0.0,H4C3N
O(C)c1cc(c2c(n1)cccc2)c1ccccc1,4.725493449533678,0.7488225061257254,0.0,H13C16NO
C([C@@H](C(=O)O)N)c1c[nH]cn1,4.77882563125022,-0.4041593660935176,0.0,H9C6N3O2
F[C@@H]1SC(=O)SC1,5.895624722271895,1.0640968104649802,0.0,H3C3S2OF
C(C)n1c2c(c3c1cccc3)cc(cc2)C(c1ccc[nH]1)c1ccc[nH]1,3.92173545452315,0.1596712859114633,0.0,H21C23N3
C(=O)(O)c1c(O)cc(cc1)O,4.992020382856572,0.6218104249634053,0.0,H6C7O4
O=c1c2c([nH]c3c1cccc3)ccc(c2)O,4.123078987222106,0.9957899429842656,0.0,H9C13NO2
C([C@@H](C(=O)O)N)c1c2c([nH]c1)cccc2,4.1331273839146885,-0.3705188274783721,0.0,H12C11(NO)2
C(=O)c1c(Cl)cc(cc1)Cl,5.787940993193478,1.483663010194141,0.0,H4C7Cl2O
C(N1C(=O)CCC1)c1ccccc1,5.115954880991557,-0.4346744541348015,0.0,H13C11NO
C(CCC)n1c(=O)n(cc1)C,3.976949948335096,-0.8536383380473125,0.0,H14C8N2O
S(CC(=O)O)CCSCC(=O)O,4.967429311037995,-0.6182894872457836,0.0,H5C3SO2
Nc1[nH]c(N)nc(=O)n1,5.328029957623221,-0.2591629303118679,0.0,H5C3N5O
O=C1c2c(C(=O)C(=C1C)C)cn(c2)C,5.03137034872052,1.9617533318538336,0.0,H11C11NO2
S(c1cc2c(nc1)cccc2)c1cc2c(nc1)cccc2,4.544405009729962,1.0016327495664883,0.0,H12C18SN2
C(C)Cl,7.006068115662492,1.6472282058872223,0.0,H5C2Cl
C(=C)n1c2c(cc1)CCCC2,4.0183506266763285,-0.2918563114002608,0.0,H13C10N
S(=O)(=O)(c1ccc(cc1)O)c1ccc(cc1)O,5.057454375828092,0.0289563721649757,0.0,H10C12SO4
C(=O)c1ccc(cc1)N,4.430957659209161,0.7664983544014832,0.0,H7C7NO
C(CCC)(CCC)O,5.704360958268444,-0.7747786373987764,0.0,H16C7O
[C@H](C(=O)O)(N)c1ccccc1,5.149468641764178,0.1112789635895752,0.0,H9C8NO2
[C@H]([C@@H]([C@@H](C(=O)O)O)O)([C@H](C(=O)O)O)O,5.902924924300896,0.5585793322912651,0.0,H5C3O4
C(=C)(C)[C@H]1c2c(OC1)cccc2,4.493449951929142,-0.411587750072067,0.0,H12C11O
C([C@H]1C(=CCCC1)O[Si](C)(C)C)c1ccccc1,4.174909990358719,-0.6746448183388565,0.0,SiH24C16O
O=C1C=CC(=O)C=C1,6.383975934313275,2.7926482767084964,0.0,H2C3O
S([O])([O])(O)c1c2c(ccc1)cccc2,5.03933830995229,1.221406778405799,0.0,H8C10SO3
S([O])([O])(O)[C@@H]1C(=O)N(C(=O)C1)O,6.284721119137975,2.345918816446647,0.0,H5C4SNO6
O=C1c2c3c(C(=O)O1)cccc3ccc2,5.351468276306695,1.883514184091473,0.0,H2C4O
Cc1c(C)cc(c(c1)C)C,4.576142944713501,-0.7971913236473482,0.0,H7C5
Oc1cc2[C@@H]3N(C(=O)Cc2cc1OC)CCC3,4.234630414508137,-0.4508867517346515,0.0,H15C13NO3
[C@H](CC=C)(C(=O)O)O,5.634843679453843,0.2814165846808465,0.0,H8C5O3
O([C@@H](C(=O)O)C)c1c(C)cc(cc1)Cl,4.652867264668748,0.1340061508468353,0.0,H11C10ClO3
C(=O)c1ccc(cc1)c1ccco1,4.5349948179497,1.3126235739142431,0.0,H8C11O2
[C@@H]1([C@H](C1)c1ccccc1)c1ccccc1,4.2918922220975215,-0.3699922627132763,0.0,H14C15
N(Cc1ccccc1)(CC(F)(F)F)[C@@H](C#N)C,4.876850440164708,-0.0056644783238879,0.0,H13C12N2F3
O([Si](C)(C)C)C1=CCCC[C@H]1CCCC,4.140678676276002,-0.6766491272377606,0.0,SiH26C13O
O(C)[C@@H]1N(C=O)CCN(C1)C=O,5.263041798681661,-0.6647490911076601,0.0,H12C7N2O3
C([C@@H](C(=O)O)N)c1cc(O)c(cc1)O,4.451237794748158,-0.2829392007719433,0.0,H11C9NO4
N(C(=O)OCC)c1ccc(cc1)OC,4.115543126435659,-0.5313035938946995,0.0,H13C10NO3
C([Si](C)(C)C)C=C,4.700893329934479,-0.7082315409956208,0.0,Si(H7C3)2
[C@H](CC=C)(O)c1c(O)cccc1,4.659077384106785,-0.2360185925357654,0.0,H6C5O
P(c1ccccc1)c1ccccc1,4.384760046557494,0.1283197226563062,0.0,PH11C12
C[C@@H]1[C@@H](OC(=O)N1)c1ccccc1,5.536981327939065,-0.3955668110833357,0.0,H11C10NO2
C(=O)(OC)c1c2c(C(=O)OC)cccc2ccc1,4.956978417155915,1.1524409410063527,0.0,H6C7O2
C(=O)(CC[C@@H](C)O)N1CCCC1,5.142073754999364,-0.712118148392983,0.0,H17C9NO2
CC1(C)C(C)(C)N(C(N1O)c1ccc(cc1)C#C)O,3.944534615891462,0.4330575097752445,0.0,H20C15(NO)2
C([C@@H]1C(=C(C#N)C#N)CC(C1)(C)C)C1=CCOC1=O,5.223443632342969,1.487755033614667,0.0,H16C15(NO)2
N(CC(F)(F)F)(C)c1ccc(cc1)c1ccc(cc1)N(CC(F)(F)F)C,3.488409821265668,-0.0183721619381684,0.0,H9C9NF3
N(CC(F)(F)F)(CC)c1ccccc1,4.080380687782599,-0.8114818798479972,0.0,H12C10NF3
C(C(=O)N1CCCC1)c1c(OC)cccc1,4.57086665738243,-0.4884829493552387,0.0,H17C13NO2
C[C@]12C(C)(C)[C@H](CC1=O)CC2,5.266217168536604,-0.2293002569680537,0.0,H16C10O
S([O])([O])(O)c1c2c(c(c(c1)O)N)cccc2,3.982483570996556,1.0408244023179578,0.0,H9C10SNO4
C(C=C(C)C)C[C@@H](C)O,4.786479377187424,-0.8039334691806288,0.0,H16C8O
C(#N)c1c(Oc2ccc(cc2)c2ccsc2)cccc1C#N,4.492361760525091,1.4427380276698387,0.0,H10C18SN2O
N([N]c1ccccc1)([O])c1ccccc1,4.463026536317193,1.8547063954189071,0.0,H10C12N2O
C([C@]1(C)C(=O)CCCC1)c1ccccc1,5.186968598163366,0.0904542166914326,0.0,H18C14O
C(C(=O)O)CC=C,5.703565188557695,-0.0522010631852025,0.0,H8C5O2
S(CC(=O)OCC)c1ccccc1,4.523135060111235,0.0695674604954548,0.0,H12C10SO2
C([C@@H](CC=C)O)c1ccccc1,5.124514104776244,-0.2910281383759865,0.0,H14C11O
[C@H]([C@@H](C(=O)CO)O)([C@H](CO)O)O,5.464255143958871,0.8151036901595945,0.0,H2CO
S([C@@H](C(=O)OCC)F)c1ncccn1,5.619062508137722,0.7698364020667214,0.0,H9C8SN2O2F
C(=O)(C(=O)SCCC)SCCC,5.740192835067864,1.891066050609516,0.0,H7C4SO
O=c1c2c3c4c([nH]1)ccc1c4c4c5c3c(cc2)ccc5ccc4cc1,4.096444027547113,1.0777758561249358,0.0,H11C23NO
C[C@]12c3c(OC1=CC(=O)[C@H](C2=O)C(=O)C)c(C(=O)C)c(c(c3O)C)O,4.756936214465531,1.3894047438967392,0.0,H16C18O7
S(=O)(=O)(Cl)c1c(C)cc(cc1C)C,5.561735923840024,3.1291991865815363,0.0,H11C9SClO2
O(C(=O)c1ccc(cc1)C)[C@]12C[C@H]3C[C@@H](C2)C[C@@H](C1)C3,5.392138084088947,0.538648185467173,0.0,H11C9O
C(C)(C)(C)c1ccccc1,5.154613440966932,-1.0012032862836349,0.0,H7C5
C(C#CCO)OCCO,5.544200875430397,0.0428519143093582,0.0,H10(C2O)3
c12c3c4c5c6c1c1ccc2[nH]c3ccc4ccc5ccc6cc1,3.8983724106925366,0.615441001920408,0.0,H11C22N
Oc1c2c(ccc1N)cccc2,3.579191332586197,0.2042133525352256,0.0,H9C10NO
Cc1c(C)c(C)ccc1C,4.68288639258717,-0.9720434748200204,0.0,H7C5
[C@H]([C@@H](C(=O)C)C)(O)c1ccccc1,5.242263357400224,0.4830565364296491,0.0,H14C11O2
c12c(Sc3c(N1)cccc3)cccc2,3.497346529523929,-0.1453961263017844,0.0,H9C12SN
[C@H](CCCC)(O)c1c(O)ccc(c1)O,4.135259480202512,-0.2352890063542871,0.0,H16C11O3
O(c1c(N(=O)=O)cccc1)c1ccccc1,4.981727799362124,2.0560800347971964,0.0,H9C12NO3
S(Sc1c(Cl)ccc(c1)Cl)c1c(Cl)ccc(c1)Cl,5.017777715541888,2.2299399310082664,0.0,H3C6SCl2
S(SN1CCOCC1)N1CCOCC1,4.214130664049298,1.380658150688396,0.0,H8C4SNO
O=C1N[C@@H](CO1)c1ccccc1,5.4549122350414105,-0.3508157419913913,0.0,H9C9NO2
O(C)[C@H]1c2c(CCN1C=O)cccc2,5.258616340573644,-0.2922122226977079,0.0,H13C11NO2
C1CCCC=CCC1,4.973110158177951,-0.8889622082409914,0.0,H7C4
C(=O)(OC)[C@@H]1[C@H]([C@@H](CC1=O)c1ccccc1)c1ccccc1,5.31499146250062,0.4184481694916031,0.0,H18C19O3
O(C(C(=O)O)(C)C)c1ccc(cc1)Cl,4.729469952458748,1.365519932665484,0.0,H11C10ClO3
[C@@H](CO)(O)c1cc2c(cc1)cccc2,4.610067559287563,0.4514356104024046,0.0,H6C6O
Cc1cc(c2c(c1OC)cccc2)c1c2c(c(OC)c(cc2)C)ccc1,4.1238766780494185,0.4466096007286979,0.0,H11C12O
O[C@]12[C@@H](C[C@H](O1)c1ccccc1)C(=O)CCC2,5.272901715730404,-0.0009943245699104,0.0,H16C14O3
Cc1c(C)c(C)c(c(c1C)C)C,4.392699710667875,-1.120653111620777,0.0,H3C2
C(=O)(C#C)O,6.7564232500613794,1.150426142113793,0.0,H2C3O2
C[C@H]1C[C@@H](C)CCC1,5.963275482466633,-1.0238113802010047,0.0,H2C
C([S@@]([O])O)CCC,5.5175334552965065,1.3366267437828356,0.0,H10C4SO2
S(=O)(=O)(c1c(Cl)ccc(c1)Cl)c1c(Cl)ccc(c1)Cl,5.629725999105721,1.2036588118149667,0.0,H6C12S(Cl2O)2
[C@](CN(=O)=O)(NC(=O)C)(C)c1ccccc1,5.41457803341982,1.591937226310256,0.0,H14C11N2O3
O(C)c1c(O)c(OC)cc(c1)C(=O)O,4.616239484830293,0.6776481655957469,0.0,H10C9O5
C(C)(C)(C)[C@@H]1CC[C@H](CC1)O,5.643286375926982,-0.6846926000584062,0.0,H20C10O
C(=C(Cl)Cl)[S@](=O)CCC,5.16870621395501,1.6760505417638345,0.0,H8C5SCl2O
N(=O)(=O)c1c(Cl)ccc(c1)Cl,5.744487803707306,2.233972187344625,0.0,H3C6N(ClO)2
[N]([O])N1c2c(C[C@H]1C)cccc2,4.769822165295045,1.055084021898074,0.0,H10C9N2O
C(=O)(O)c1c(C(=O)O)cccc1,5.972154423683241,1.6221082127973203,0.0,H3(C2O)2
C(#N)c1c(C#N)cccc1,6.290149090889463,1.4007412812476103,0.0,H2C4N
N([C@@H](C(F)(F)F)OC)(c1ccccc1)c1ccccc1,4.220722834046319,-0.2752980346616822,0.0,H14C15NOF3
O=C1C2=C(O[C@@H](C2)c2ccccc2)CC[C@H]1C,4.7858288346302285,0.4203901888155088,0.0,H16C15O2
[C@H](CO)(C)O,5.500453808440033,-0.5430407399593604,0.0,H8C3O2
N(C(C)C)C(C)C,4.198354970384207,-0.9827828964474974,0.0,H15C6N
Oc1cc(ncc1)c1cc(O)ccn1,5.191607377195032,0.7572043552223477,0.0,H4C5NO
C(=O)(OC(CCCC(=O)C)(C)C)c1ccc(cc1)C,5.420296217301802,0.5004738357398311,0.0,H22C16O3
Clc1c2c(ccc1)cccc2,4.649163251096615,0.5584311935177539,0.0,H7C10Cl
C(=O)(OC)[C@@]12C[C@](C(=C)C1)(C)CCC2=O,5.463493222488614,0.3421010374127946,0.0,H16(C4O)3