smiles,IE,EA,charge,formula_pretty
COCCOCCOc1c(c2ccccc2)nccn1,4.751830779250303,0.8797919823788107,0.0,H18C15N2O3
CC(=O)c1c(nccn1)N(C)C,4.498054183386193,1.2670043011308736,0.0,H11C8N3O
C1Cc2cc(c(cc2C(C1)(N)N)O)O,4.168361181711225,-0.4811025689799861,0.0,H7C5NO
CC(C)(C)c1c(C(C)(C)C)nccn1,5.102069834272333,0.3365782829729142,0.0,H10C6N
CN(C)C1(CCCc2cc(c(cc12)O)O)N(C)C,3.788737859403773,-0.6484859680844237,0.0,H11C7NO
c1c(C(Br)(Br)Br)ncc(C(Br)(Br)Br)n1,6.077449300757143,2.979129473993089,0.0,HC3Br3N
CC(=O)c1cncc(C(Cl)(Cl)Cl)n1,5.8308207762253,1.800118253240362,0.0,H5C7N2Cl3O
COCCOCCOCCOc1c(nccn1)OCCOCCOC,4.710582111869007,0.7143126699171263,0.0,H28C16N2O7
c1cnc(c(C(F)(F)F)n1)C(F)(F)F,6.470146571887744,1.4836093030949995,0.0,HC3NF3
Cc1c(C)nccn1,5.334108474647655,0.5438633669160482,0.0,H4C3N
Cc1cncc(C(=O)C)n1,5.449960100598764,1.489471024300292,0.0,H8C7N2O
COCCOc1c(c2ccccc2)nccn1,4.7437529819959305,0.8740974261396333,0.0,H14C13(NO)2
COCCOCCOCCOc1c(nccn1)OCCOC,4.823622467168752,0.3464222378221167,0.0,H12C7NO3
C=Cc1c2CCCCc2c(c(c1O)O)C(C)(C)C,4.059092936471279,0.2846249782684027,0.0,H11C8O
CC(=O)c1cncc(c2ccccc2)n1,5.2420532528609325,1.5225498818559573,0.0,H10C12N2O
COCCOc1c(nccn1)OCCOC,4.835233836778206,0.3502825182054949,0.0,H8C5NO2
CCc1c(CC)nccn1,5.267392498953631,0.5724238585349668,0.0,H6C4N
Cc1cnc(C)cn1,5.324722160852252,0.6487126548487141,0.0,H4C3N
CCc1cncc(CC)n1,5.27303493178224,0.6061870742283646,0.0,H6C4N
COCCOCCOCCOc1cnc(cn1)Cl,5.310577501195075,0.910286188403552,0.0,H17C11N2ClO4
CC(=O)c1cnc(cn1)C(Br)(Br)Br,5.805274688254576,2.993514603347285,0.0,H5C7Br3N2O
COCCOc1c(nccn1)N(=O)=O,5.800424207370815,2.246663617597369,0.0,H9C7N3O4
COCCOc1cncc(C(F)(F)F)n1,5.707053502932103,1.139971193735255,0.0,H9C8N2O2F3
C1Cc2cc(c(cc2C(C1)(N(=O)=O)N(=O)=O)O)O,4.7250728241248,2.190757331487112,0.0,H5C5NO3
CC(C)(C)c1cnc(cn1)C(C)(C)C,5.08707057390493,0.3892197390847287,0.0,H10C6N
COCCOCCOCCOc1c(nccn1)N(=O)=O,5.75230620299917,2.2027452359012387,0.0,H17C11(NO2)3
CC(=O)c1cnc(cn1)N(=O)=O,6.106977445504162,2.761635838041548,0.0,H5C6(NO)3
COCCOCCOc1c(C(Cl)(Cl)Cl)nccn1,5.59469012877671,2.9157715681154515,0.0,H13C10N2(ClO)3
COCCOCCOCCOc1cnc(cn1)OCCOC,4.694711197409196,0.6329781918662776,0.0,H12C7NO3
COCCOc1cncc(n1)OCCOC,4.8508722952698005,0.4560356431407855,0.0,H8C5NO2
C#Cc1c(Cl)nccn1,5.7611171837867,1.3632336022616074,0.0,H3C6N2Cl
C1CCc2c(C1)c(c(c(c2N)O)O)C(=O)O,4.041708375175949,0.4209674619938597,0.0,H13C11NO4
COCCOCCOc1cncc(C(Cl)(Cl)Cl)n1,5.551737419214623,2.7458106740756194,0.0,H13C10N2(ClO)3
C=Cc1c(C=C)nccn1,4.8969968154266095,1.0680978607830185,0.0,H4C4N
COCCOc1c(C(F)(F)F)nccn1,5.699321445348323,1.1171550089216908,0.0,H9C8N2O2F3
CC(C)(C)c1cncc(C(C)(C)C)n1,5.078351066909454,0.5564519925570495,0.0,H10C6N
CCc1c(Cl)nccn1,5.721678541465371,0.9205135979114858,0.0,H7C6N2Cl
CNc1c2CCCCc2c(c(c1O)O)OC,3.458063930878416,-0.517742738158995,0.0,H17C12NO3
COCCOCCOCCOc1cncc(c2ccccc2)n1,4.850422496537794,0.8832733469585947,0.0,H22C17(NO2)2
CC(=O)c1c(nccn1)OC,5.431499865134901,1.4690693028584063,0.0,H8C7(NO)2
Cc1cnc(cn1)OCCOC,5.105895237827644,0.57852557598344,0.0,H6C4NO
COc1c(nccn1)OC,4.783200786390443,0.3418106538516441,0.0,H4C3NO
c1c(C(Cl)(Cl)Cl)nc(cn1)C(Cl)(Cl)Cl,6.253516804843093,2.8252102485945216,0.0,HC3NCl3
CC(=O)c1cnc(cn1)C(F)(F)F,5.912567123062763,1.9703141556688932,0.0,H5C7N2OF3
c1cnc(c(C(Cl)(Cl)Cl)n1)C(Cl)(Cl)Cl,6.148964213507133,2.796760972612537,0.0,HC3NCl3
c1c(C(Cl)(Cl)Cl)ncc(C(Cl)(Cl)Cl)n1,6.261589807466953,2.845253470915486,0.0,HC3NCl3
C=Cc1cnc(C=C)cn1,4.85203114375472,1.3194699091141957,0.0,H4C4N
CC(=O)c1cncc(F)n1,5.901535451177187,1.7855127279795853,0.0,H5C6N2OF
COCCOCCOc1cncc(C(=O)O)n1,5.597528178140783,1.4628709659496963,0.0,H14C10N2O5
CCc1c2CCCCc2c(c(c1O)O)NC,4.050327219103201,-0.7285041879644267,0.0,H19C13NO2
CC(=O)c1c2CCCCc2c(c(c1O)O)N(=O)=O,4.758318359568511,2.224448039725394,0.0,H13C12NO5
CCc1cnc(CC)cn1,5.273551224252151,0.6114879307166121,0.0,H6C4N
COc1cncc(n1)OC,4.792627242420712,0.4367766746487178,0.0,H4C3NO
COCCOc1c(C(Cl)(Cl)Cl)nccn1,5.595520870543259,2.910602850113355,0.0,H9C8N2Cl3O2
c1c(C(F)(F)F)nc(cn1)C(F)(F)F,6.459771385519707,1.6766921998038016,0.0,HC3NF3
COCCOc1cnc(cn1)Cl,5.309272230989881,0.9239706844979084,0.0,H9C7N2ClO2
COCCOCCOCCOc1cnc(cn1)c1ccccc1,4.714919497602386,0.693122909529484,0.0,H22C17(NO2)2
Cc1c(nccn1)OCCOCCOC,5.123867796309787,0.4754799211601495,0.0,H16C10N2O3
Cc1cnc(cn1)OCCOCCOC,5.085568712319946,0.5769425210724877,0.0,H16C10N2O3
CN(C)c1c2CCCCc2c(c2ccccc2)c(c1O)O,4.084203778367373,-0.1542620196654751,0.0,H21C18NO2
Cc1c(nccn1)OCCOC,5.126636105631041,0.4712042100196414,0.0,H6C4NO
CC(=O)c1cncc(n1)N(=O)=O,6.088193157831119,2.548755674518907,0.0,H5C6(NO)3
CC(=O)c1cncc(C(F)(F)F)n1,5.903262478795659,1.8183970948899515,0.0,H5C7N2OF3
COCCOc1cnc(cn1)c1ccccc1,4.694869159485824,0.703508343701833,0.0,H14C13(NO)2
CC(=O)c1c(nccn1)N(=O)=O,6.154178755493922,2.535073687312979,0.0,H5C6(NO)3
CC(=O)c1c(=N)[nH]ccn1,4.599274444156981,1.7551322138402612,0.0,H7C6N3O
CC(=O)c1c(C(Cl)(Cl)Cl)nccn1,5.802418728338671,1.7473913424924832,0.0,H5C7N2Cl3O
COCCOCCOc1cnc(cn1)OCCOC,4.672675367053307,0.6289449559313653,0.0,H20C12N2O5
COCCOc1cnccn1,5.340885924227768,0.6151449475088158,0.0,H10C7(NO)2
Cc1cncc(n1)OCCOC,5.140232651817859,0.5448233464427177,0.0,H6C4NO
COCCOCCOc1cncc(n1)OCCOC,4.854325689274992,0.438980029377126,0.0,H20C12N2O5
c1c(ncc(n1)N(=O)=O)N(=O)=O,7.007088850050058,3.1725949518891867,0.0,HC2(NO)2
COCCOCCOc1cncc(n1)OCCOCCOC,4.8345069935072384,0.461599075877166,0.0,H12C7NO3
C#Cc1cncc(C#C)n1,5.633181191793119,1.3326744589863666,0.0,H2C4N
C=Cc1cncc(C=C)n1,5.059697361224243,1.1829828431433271,0.0,H4C4N
CC(=O)c1cnc(cn1)NC,4.762817155074663,0.9976319414268802,0.0,H9C7N3O
CCc1c(C(=O)C)nccn1,5.433063033966027,1.422491198865464,0.0,H10C8N2O
CC(=O)c1c(C(=O)C)nccn1,5.538659641738922,1.725557284552997,0.0,H4C4NO
Cc1cnc(cn1)OCCOCCOCCOC,5.102006755566981,0.581180794791726,0.0,H10C6NO2
COCCOCCOCCOc1c(C(F)(F)F)nccn1,5.670533531874389,1.0116270717931912,0.0,H17C12N2O4F3
CC(=O)c1c2CCCCc2c(c(c1O)O)NC,4.268094413824292,0.5918587295760518,0.0,H17C13NO3
CC(=O)c1cncc(C(Br)(Br)Br)n1,5.793300065671792,2.921894257387612,0.0,H5C7Br3N2O
COCCOc1cnc(cn1)N(=O)=O,5.897110648862144,2.1878693492231838,0.0,H9C7N3O4
CC(=O)c1c(c2ccccc2)nccn1,5.103246098040108,1.484625063237763,0.0,H10C12N2O
c1c(C(F)(F)F)ncc(C(F)(F)F)n1,6.5013892515176845,1.7658806587656728,0.0,HC3NF3
CC(C)(C)c1c2CCCCc2cc(c1O)O,4.101514294770459,-0.3335371826418849,0.0,H10C7O
C#CC1(C#C)CCCc2cc(c(cc12)O)O,4.362221284523548,-0.3673717574660258,0.0,H6C7O
COCCOCCOc1cncc(c2ccccc2)n1,4.850592788099311,0.8857598687987775,0.0,H18C15N2O3
COCCOCCOc1c(nccn1)OCCOCCOC,4.788131252401945,0.5669817287067418,0.0,H12C7NO3
COCCOCCOc1cnccn1,5.3508599903121645,0.6233227275530226,0.0,H14C9N2O3
COCCOc1c(Cl)nccn1,5.364118911247351,0.8365109810853029,0.0,H9C7N2ClO2
CCC1(CC)CCc2cc(c(cc2C1)O)O,4.120324623732449,-0.5428063220482726,0.0,H10C7O
C1Cc2cc(c(cc2C(C1)(C#N)C#N)O)O,4.623117200191336,1.581311518338771,0.0,H5C6NO
COCCOCCOCCOc1c(c2ccccc2)nccn1,4.7687883503982444,0.8351028980956472,0.0,H22C17(NO2)2
COCCOCCOc1c(C(F)(F)F)nccn1,5.653311857922381,1.1034642678110689,0.0,H13C10N2(OF)3
COCCOCCOc1cnc(cn1)N(=O)=O,5.8009375718953375,2.18166352918488,0.0,H13C9N3O5
C=Cc1c(Cl)nccn1,5.359805030702409,1.293365476181498,0.0,H5C6N2Cl
C=Cc1c(C)nccn1,5.162920847885834,0.99603887544763,0.0,H8C7N2
COc1cnc(cn1)OC,4.632118410323164,0.6190802796096251,0.0,H4C3NO
C=Cc1cnc(cn1)OCCOCCOC,4.745142710909567,0.7996244100992045,0.0,H16C11N2O3
CCc1c(nccn1)OCCOCCOC,5.1087659707969575,0.4772095501881268,0.0,H18C11N2O3
CCc1cncc(n1)OCCOCCOC,5.143945998892013,0.5244859010068468,0.0,H18C11N2O3
c1c(C(Cl)(Cl)Cl)nc(cn1)Cl,6.178357106802286,2.835631041243323,0.0,H2C5(NCl2)2
CCc1c(nccn1)OCCOCCOCCOC,5.117874649565783,0.4787840062977921,0.0,H22C13(NO2)2
c1ccc(cc1)c1cnc(cn1)Cl,5.105042321488872,1.1046123133761283,0.0,H7C10N2Cl
c1ccc(cc1)c1cnc(cn1)c1ccccc1,4.701239875075407,1.1159945359191623,0.0,H6C8N
CCc1cncc(C)n1,5.296013650191162,0.6281365274822748,0.0,H10C7N2
C=Cc1c(CC)nccn1,5.145460524652298,0.9784776986649376,0.0,H5C4N
c1cnc(c(C(Br)(Br)Br)n1)Cl,5.861710543272784,2.8471916071663146,0.0,H2C5Br3N2Cl
c1ccc(cc1)c1c(Cl)nccn1,5.232999064888281,1.06384844944987,0.0,H7C10N2Cl
C=Cc1cnc(cn1)N(=O)=O,5.8006182272562,2.4727896405926004,0.0,H5C6N3O2
C=Cc1cnccn1,5.332623541267457,1.067440107213406,0.0,H3C3N
CCc1c(C(Br)(Br)Br)nccn1,5.627445655228803,2.8531329243793158,0.0,H7C7Br3N2
CCc1cnc(cn1)C(F)(F)F,5.854977108092134,1.1505665582968505,0.0,H7C7N2F3
CCc1cnc(cn1)OCCOCCOC,5.072591045523586,0.5490617426163227,0.0,H18C11N2O3
c1c(C(Br)(Br)Br)nc(cn1)Cl,6.0589074583782345,2.943615208461415,0.0,H2C5Br3N2Cl
C=Cc1cnc(cn1)c1ccccc1,4.762506716724237,1.2174924616534557,0.0,H5C6N
C=Cc1cnc(C)cn1,5.097881926106856,0.9958283518550162,0.0,H8C7N2
CCc1c(c2ccccc2)nccn1,5.042682627124668,0.7286311531675893,0.0,H6C6N
CC(=O)c1cncc(n1)OCCOCCOC,5.470622349273617,1.5004691527188698,0.0,H16C11(NO2)2
c1cnc(c(C(F)(F)F)n1)Cl,6.333568249823292,1.4398086568922737,0.0,H2C5N2ClF3
COCCOc1cncc(Cl)n1,5.382365842118452,0.8414455995567551,0.0,H9C7N2ClO2
c1ccc(cc1)c1cncc(Cl)n1,5.187117917908472,1.188157615686214,0.0,H7C10N2Cl
CCc1c(nccn1)N(=O)=O,6.08059040330736,2.294253481658961,0.0,H7C6N3O2
CCc1c(C(Cl)(Cl)Cl)nccn1,5.77809366412257,2.702303004678106,0.0,H7C7N2Cl3
CCc1cnc(cn1)OCCOC,5.085231089798617,0.5540338529295696,0.0,H14C9(NO)2
COCCOCCOc1c2CCCCc2c(C#N)c(c1O)O,4.495747180493344,0.4693508535434376,0.0,H21C16NO5
CCc1cncc(F)n1,5.819814878961187,0.8978082015270048,0.0,H7C6N2F
C=Cc1cnc(cn1)OC,4.745563790743836,0.8157745024760517,0.0,H8C7N2O
COCCOCCOc1cncc(n1)N(=O)=O,5.755485246392345,2.3930361493854435,0.0,H13C9N3O5
C=Cc1cncc(n1)OCCOC,4.969736814624048,1.003375502639392,0.0,H12C9(NO)2
c1c(C(Br)(Br)Br)ncc(Cl)n1,6.044120770640438,2.955027856014204,0.0,H2C5Br3N2Cl
CCc1cncc(n1)N(=O)=O,6.126475275524717,2.3924486556075863,0.0,H7C6N3O2
CC(C)(C)c1c2CCCCc2c(c(c1O)O)Cl,4.290460873374832,-0.0867522470856783,0.0,H19C14ClO2
C#Cc1cncc(CC)n1,5.515981168300277,1.0310068806025812,0.0,H4C4N
COCCOCCOc1cncc(Cl)n1,5.394962574032979,0.8271580012311461,0.0,H13C9N2ClO3
Cc1cncc(Cl)n1,5.757832396962476,0.968614320326742,0.0,H5C5N2Cl
Cc1cnc(cn1)Cl,5.7373415174202815,0.9789074534906832,0.0,H5C5N2Cl
CCc1cnc(cn1)C(Cl)(Cl)Cl,5.761502192211628,2.7632234154822077,0.0,H7C7N2Cl3
C=Cc1c(nccn1)OCCOCCOCCOC,4.831379066695808,1.0127939884565422,0.0,H20C13(NO2)2
C=Cc1c(c2ccccc2)nccn1,4.854597813995133,1.0222766115053674,0.0,H5C6N
C=Cc1c(nccn1)OCCOCCOC,4.81671735810014,1.0069040599279109,0.0,H16C11N2O3
C=Cc1cnc(cn1)C(F)(F)F,5.661649918457988,1.5150203096251065,0.0,H5C7N2F3
CCc1cnc(cn1)N(=O)=O,6.11106094903298,2.358735800021896,0.0,H7C6N3O2
CCc1cnccn1,5.419469083748117,0.6979403013570846,0.0,H4C3N
c1c(nc(cn1)N(=O)=O)N(=O)=O,6.851066220025677,2.753373400658893,0.0,HC2(NO)2
COc1c(Cl)nccn1,5.369903550768504,0.844155638421944,0.0,H5C5N2ClO
C=Cc1cnc(cn1)OCCOCCOCCOC,4.750766645434487,0.812801835663413,0.0,H20C13(NO2)2
C#Cc1cncc(C=C)n1,5.295201795831963,1.253272470830416,0.0,H3C4N
C=Cc1cncc(C(Br)(Br)Br)n1,5.421022889169398,2.9070301749976357,0.0,H5C7Br3N2
C=Cc1c(C(F)(F)F)nccn1,5.654137753351824,1.296570305084606,0.0,H5C7N2F3
COc1cnc(cn1)Cl,5.287342802582861,0.9280806946422672,0.0,H5C5N2ClO
C#Cc1c(C=C)nccn1,5.201517687000523,1.164130407281482,0.0,H3C4N
CCc1c(F)nccn1,5.814161303072615,0.8671905075203541,0.0,H7C6N2F
COCCOCCOCCOc1cnccn1,5.36563461526166,0.6281567754791468,0.0,H18C11(NO2)2
COc1cncc(Cl)n1,5.382506715451745,0.8514009959122633,0.0,H5C5N2ClO
C=Cc1cnc(cn1)OCCOC,4.774013085765182,0.8097845340176719,0.0,H12C9(NO)2
C=Cc1cncc(C)n1,5.19961717864644,1.0180297335442448,0.0,H8C7N2
CCc1cncc(n1)OCCOCCOCCOC,5.151891075345338,0.5308400094887475,0.0,H22C13(NO2)2
c1c(C(Br)(Br)Br)nc(cn1)C(Br)(Br)Br,6.098430831416044,2.92279574329732,0.0,HC3Br3N
CCc1cnc(C)cn1,5.302034759355228,0.6304754629360105,0.0,H10C7N2
CCc1cnc(cn1)OC,5.070359072582141,0.5703558477849584,0.0,H10C7N2O
CCc1cncc(C(Br)(Br)Br)n1,5.727425700018648,2.8945469771511854,0.0,H7C7Br3N2
C#Cc1c(nccn1)OCCOCCOC,5.168210387158615,1.0668949897277344,0.0,H14C11N2O3
COCCOCCOCCOc1cncc(Cl)n1,5.41144890114956,0.8395700848574053,0.0,H17C11N2ClO4
C1Cc2cc(c(cc2C(C1)(C(=O)O)C(=O)O)O)O,4.43755833275427,0.3430260856890528,0.0,H2C2O
C=Cc1cnc(cn1)C(Cl)(Cl)Cl,5.48092456832237,2.828796782444988,0.0,H5C7N2Cl3
C#Cc1c(CC)nccn1,5.5039227836838105,1.0140942925969283,0.0,H4C4N
Cc1cncc(n1)OCCOCCOCCOC,5.160985000101936,0.5418009807595809,0.0,H10C6NO2
C=Cc1cncc(n1)N(=O)=O,5.733443903012448,2.430935767542542,0.0,H5C6N3O2
C=Cc1cncc(n1)OCCOCCOC,4.966341805365664,0.9918469971431478,0.0,H16C11N2O3
C=Cc1cncc(F)n1,5.418932075253542,1.2954911641842046,0.0,H5C6N2F
CCc1cnc(cn1)F,5.801598963629294,0.9151918077037408,0.0,H7C6N2F
CCc1cncc(c2ccccc2)n1,5.021210763590352,0.8701261015445199,0.0,H6C6N
C=Cc1c(nccn1)N(=O)=O,5.763572986693907,2.3322374931973173,0.0,H5C6N3O2
C=Cc1cnc(cn1)C(Br)(Br)Br,5.413105802342761,2.948083538090577,0.0,H5C7Br3N2
C=Cc1cncc(C(F)(F)F)n1,5.6314816041318405,1.399956426020799,0.0,H5C7N2F3
CCc1cncc(C(Cl)(Cl)Cl)n1,5.766436753548623,2.7632118615307264,0.0,H7C7N2Cl3
COCCOCCOc1cncc(F)n1,5.428115941796568,0.7535852629385773,0.0,H13C9N2O3F
COCCOCCOc1cncc(n1)OC,4.797450013940397,0.425867266226851,0.0,H8C5NO2
COCCOCCOCCOc1cnc(cn1)N(=O)=O,5.791110381976614,2.1801215961182607,0.0,H17C11(NO2)3
Cc1c(nccn1)OCCOCCOCCOC,5.145341336070123,0.4735061243824021,0.0,H10C6NO2
CC(C)(C)c1cnc(cn1)c1ccccc1,4.925703298836742,0.8425876205234091,0.0,H8C7N
COCCOCCOCCOc1c(=O)[nH]ccn1,4.663022256519616,0.683158348377765,0.0,H18C11N2O5
COCCOCCOc1c(=O)[nH]ccn1,4.578895199317776,0.9074268842137828,0.0,H14C9(NO2)2
CC(C)(C)c1cncc(C(F)(F)F)n1,5.766048545059311,1.1355943215545268,0.0,H11C9N2F3
CNc1cnc(cn1)OCCOCCOCCOC,3.9577248280817,0.4986288576597872,0.0,H21C12N3O4
CNc1c2CCCCc2c(c2ccccc2)c(c1O)O,3.500254079489969,-0.0975046485422352,0.0,H19C17NO2
C=CC1(C=C)CCCc2cc(c(cc12)O)O,4.263812109367427,-0.3338959239212271,0.0,H8C7O
COCCOCCOCCOc1c(nccn1)OC,4.79524836808705,0.5624465379711183,0.0,H20C12N2O5
CC(C)(C)c1c(nccn1)OCCOC,5.079536963506689,0.3726289501770226,0.0,H18C11(NO)2
CN(C)c1cnc(cn1)OCCOCCOCCOC,3.945325005910127,0.4868354275655293,0.0,H23C13N3O4
C#Cc1c(c2ccccc2)nccn1,5.095885745245687,1.035368166103217,0.0,H4C6N
COCCOCCOCCOc1cncc(n1)OC,4.79855418114821,0.4255092025101477,0.0,H20C12N2O5
COCCOCCOc1cnc(cn1)OC,4.631916224299493,0.6037357557594079,0.0,H8C5NO2
C#Cc1c(C)nccn1,5.531656939044842,1.034048228948086,0.0,H6C7N2
CC(C)(C)c1c(nccn1)OCCOCCOC,5.079211784746439,0.3712776981643402,0.0,H22C13N2O3
CC(C)(C)c1cnc(cn1)OCCOC,5.044623283154214,0.5438647927927378,0.0,H18C11(NO)2
C#Cc1c(nccn1)OCCOCCOCCOC,5.190407172847335,1.0696330808001222,0.0,H18C13(NO2)2
COCCOCCOCCOc1cnc(cn1)OC,4.636092575788643,0.6085300750652096,0.0,H20C12N2O5
CCc1c(C(C)(C)C)nccn1,5.189657531874763,0.4681186159647041,0.0,H8C5N
COCCOCCOc1c[nH]c(=O)cn1,4.450470357527228,1.136275185753766,0.0,H14C9(NO2)2
C=Cc1cncc(C(C)(C)C)n1,5.155987259383982,0.9204431721278524,0.0,H7C5N
C#Cc1cncc(n1)OCCOCCOC,5.257004795346438,1.039542022315436,0.0,H14C11N2O3
CC(C)(C)c1c(nccn1)OCCOCCOCCOC,5.093253062904841,0.3778782302120818,0.0,H26C15(NO2)2
CC(C)(C)c1cncc(n1)OCCOC,5.105169589134311,0.5103556389090955,0.0,H18C11(NO)2
COCCOCCOCCOc1c[nH]c(=O)cn1,4.406088677527441,1.1417551448481391,0.0,H18C11N2O5
C#Cc1c(nccn1)OCCOC,5.190359433193953,1.080711586202233,0.0,H10C9(NO)2
C#Cc1cnc(cn1)OCCOCCOCCOC,5.114287419089669,0.8572036901838147,0.0,H18C13(NO2)2
C1CCc2c(C1)c(c(c(c2N(=O)=O)O)O)C(Br)(Br)Br,4.716495717025827,3.540490755485371,0.0,H10C11Br3NO4
CC(C)(C)c1cncc(n1)OC,5.085691634305112,0.533414195516889,0.0,H14C9N2O
CN(C)c1c(nccn1)OCCOCCOCCOC,4.003798541865399,0.2788054211028794,0.0,H23C13N3O4
CC(C)(C)c1c(nccn1)N(C)C,4.176094327741884,0.511655798827269,0.0,H17C10N3
CCc1cncc(C(C)(C)C)n1,5.174617307489461,0.582017615595396,0.0,H8C5N
CCc1cncc(n1)OC,5.1445629925307,0.542587776155051,0.0,H10C7N2O
COCCOCCOCCOc1cnc(cn1)F,5.358099263333861,0.9017879534927488,0.0,H17C11N2O4F
C#Cc1cnc(cn1)OCCOCCOC,5.104248698758601,0.8499838025469217,0.0,H14C11N2O3
CNc1cnc(cn1)OCCOCCOC,4.003861223287094,0.4801628343317135,0.0,H17C10(NO)3
C#Cc1cncc(n1)OCCOCCOCCOC,5.271596690415754,1.0461447503199452,0.0,H18C13(NO2)2
CC(C)(C)c1cnc(cn1)OCCOCCOC,5.028927713408484,0.5367589208559367,0.0,H22C13N2O3
Cc1cncc(n1)OCCOCCOC,5.168140709685394,0.5331895056784561,0.0,H16C10N2O3
CN(C)c1c(nccn1)OCCOC,3.984158143238892,0.2587412187800511,0.0,H15C9N3O2
COCCOCCOc1c(N)nccn1,4.291488043248682,0.3269232975777414,0.0,H5C3NO
COCCOCCOc1c(C(=O)O)nccn1,5.549817732278461,1.439227214924904,0.0,H14C10N2O5
COCCOCCOCCOc1cnc(cn1)N,4.245108903452637,0.546753985965188,0.0,H19C11N3O4
c1cc2c(c(c1N(=O)=O)C(=O)O)ONO2,5.027093864778726,2.2383506813290297,0.0,H4C7(NO3)2
CNc1c2CCCCc2c(c(c1O)O)C(F)(F)F,4.402266452268668,0.0131021545981639,0.0,H14C12NO2F3
C#Cc1c(nccn1)N(=O)=O,6.22494312931085,2.5025810092280154,0.0,H3C6N3O2
COCCOCCOc1cnc(cn1)F,5.340602808826224,0.8952952737650777,0.0,H13C9N2O3F
COCCOCCOCCOc1cncc(C(Cl)(Cl)Cl)n1,5.572352967713959,2.739630013676652,0.0,H17C12N2Cl3O4
COCCOc1cnc(cn1)OCCOC,4.692198454680328,0.6189535698009423,0.0,H8C5NO2
CC(C)(C)c1c(NC)nccn1,4.34781474523661,0.2394468646067253,0.0,H5C3N
c1cc2c(c(c1C(F)(F)F)C(=O)O)ONO2,4.906394601542706,1.332769228074176,0.0,H4C8NO4F3
COCCOCCOc1c(F)nccn1,5.432766081573936,0.7147486561567349,0.0,H13C9N2O3F
c1ccc(cc1)C1(CCCc2cc(c(cc12)O)O)c1ccccc1,4.26677484946922,-0.3265530517150181,0.0,H10C11O
COCCOCCOc1c(Cl)nccn1,5.375068840142921,0.8189698427609984,0.0,H13C9N2ClO3
CNc1c(nccn1)OCCOCCOCCOC,4.101684937360551,0.2079689480029629,0.0,H21C12N3O4
CC(C)(C)c1cncc(C(Cl)(Cl)Cl)n1,5.686652037280146,2.7751765029184754,0.0,H11C9N2Cl3
COCCOCCOc1cnc(cn1)c1ccccc1,4.730649046215694,0.6924643151192869,0.0,H18C15N2O3
CCc1cncc(C(F)(F)F)n1,5.865192090158962,1.170631753835187,0.0,H7C7N2F3
COC1(CCc2cc(c(cc2C1)O)O)OC,4.192484481669089,-0.4972764168909633,0.0,H4C3O
COCCOCCOCCOc1c(C(=O)O)nccn1,5.581994442663563,1.3743399993269123,0.0,H9C6NO3
COCCOCCOc1c(C#N)nccn1,5.4550564934703285,1.4708792626093783,0.0,H13C10(NO)3
COCCOCCOCCOc1c(C#N)nccn1,5.694164158846979,1.4213661088266236,0.0,H17C12N3O4
COCCOCCOc1c(nccn1)OC,4.757707295289583,0.5891223228805758,0.0,H8C5NO2
COCCOCCOCCOc1cncc(F)n1,5.4445619470840025,0.7563671099247586,0.0,H17C11N2O4F
CCc1cnc(cn1)C(C)(C)C,5.179063843533731,0.5852360637905805,0.0,H8C5N
CNc1c(nccn1)OCCOCCOC,4.133871906431159,0.223633899504057,0.0,H17C10(NO)3
c1cc2c(c(c1C(Cl)(Cl)Cl)C(F)(F)F)ONO2,4.929565426880435,2.759054446434311,0.0,H3C8NCl3O2F3
c1cc2c(c(c1N(=O)=O)C(Cl)(Cl)Cl)ONO2,5.026712312197196,2.1717451511955006,0.0,H3C7N2Cl3O4
C#Cc1c(nccn1)OC,5.171585613741263,1.0922296017193731,0.0,H6C7N2O
COCCOCCOCCOc1c(F)nccn1,5.450371852375247,0.7242218613442675,0.0,H17C11N2O4F
CC(C)(C)c1c(c2ccccc2)nccn1,5.006572829582728,0.5971391040562595,0.0,H8C7N
COCCOCCOCCOc1c(N)nccn1,4.345272176118305,0.3255502410807822,0.0,H19C11N3O4
c1cc2c(cc1C(Br)(Br)Br)ONO2,4.6096005303203125,2.857717688800767,0.0,H4C7Br3NO2
c1cc2c(cc1C(F)(F)F)ONO2,4.721343708051426,0.4252353906791541,0.0,H4C7NO2F3
CNN1Oc2ccc(cc2O1)OC,2.873742573481286,-0.3706872659444342,0.0,H10C8N2O3
COc1ccc2c(c1)ON(C(Cl)(Cl)Cl)O2,4.363448079836962,2.2913783594864072,0.0,H6C8N(ClO)3
COc1ccc2c(c1)ON(C(F)(F)F)O2,4.37182595879276,-0.1010791685788716,0.0,H6C8N(OF)3
c1ccc(cc1)c1ccc2c(c1)ON(O)O2,4.479730772201583,0.3256081713967433,0.0,H9C12NO3
CC(C)(C)c1ccc2c(c1)ON(Cl)O2,5.144773086177883,3.836473083958117,0.0,H12C10NClO2
c1ccc(cc1)c1ccc2c(c1N)ONO2,4.193456578426412,0.0917466322549445,0.0,H5C6NO
CC(C)(C)c1ccc2c(c1)ON(F)O2,5.147485383591265,3.40899863837476,0.0,H12C10NO2F
c1ccc(cc1)c1c(ccc2c1ONO2)N(=O)=O,4.844176558753679,1.9741946731570352,0.0,H4C6NO2
c1cc2c(c(c1C(F)(F)F)O)ONO2,4.758583085514692,0.3307309783573147,0.0,H4C7N(OF)3
c1ccc(cc1)c1cc2c(cc1N(=O)=O)ONO2,4.783053855802427,1.9947486586221204,0.0,H4C6NO2
CC(C)(C)c1cc2c(cc1Cl)ONO2,4.436451414481416,1.4294213070257684,0.0,H12C10NClO2
CNc1ccc2c(c1)ON(C(=O)O)O2,3.77161736826165,0.675809908725205,0.0,H4C4NO2
c1c(c(cc2c1ONO2)O)Cl,4.290031485901272,0.1704377175607079,0.0,H4C6NClO3
CN(C)c1cc(cc2c1ONO2)Cl,4.02736493092525,1.1749473922369362,0.0,H9C8N2ClO2