smiles,IE,EA,charge,formula_pretty
Cn1ccc(=c2cc(n(C)cc2OCCOC)N(=O)=O)cc1,2.507326214699424,1.6203699904122917,0.0,H19C15N3O4
c1cc2c(c(c1)O)[nH]sn2C(Br)(Br)Br,3.81913230032078,2.856314435857348,0.0,H5C7SBr3N2O
Cn1ccc(=c2cc(C(Br)(Br)Br)n(C)cc2OCCOC)cc1,2.2405540850828403,3.5422785978240428,0.0,H19C16Br3(NO)2
Cn1ccc(=c2ccn(C)c(c2C(=O)O)OCCOCCOC)cc1,2.0819721808271425,0.291322235903499,0.0,H24C18N2O5
COn1c2ccc(cc2[nH]s1)C(Br)(Br)Br,4.006114543584408,2.799638040357968,0.0,H7C8SBr3N2O
CNn1c2ccc(cc2[nH]s1)O,3.4594162359768235,1.693482037260401,0.0,H9C7SN3O
C1=Cc2c(=C[CH]1)n(N)sn2.[Cl],4.384844747424358,3.689352864975808,0.0,H6C6SN3Cl
Cn1ccc(=c2c(cn(C)cc2OCCOC)O)cc1,1.7262906640004076,-0.0379887505972873,0.0,H20C15N2O3
CNn1c2=C[CH]C=Cc2ns1.[Cl],4.358559780566429,3.6742327316474985,0.0,H8C7SN3Cl
Cn1ccc(=C2[C@H](CN(C)C=C2N)C(=O)O)cc1,2.098853089346085,0.1792276285756089,0.0,H15C13N3O2
CNc1ccc2c(c1)n(OC)s[nH]2,3.5124760915983644,1.8997991578595248,0.0,H11C8SN3O
Cc1cccc2c1[nH]sn2OC,3.879682187330764,1.5394100961071673,0.0,H10C8SN2O
c1cc2c(c(c1)O)[nH]sn2N(=O)=O,4.053223528042144,3.054614135833253,0.0,H5C6S(NO)3
CN(C)C1=C[CH]C=c2c1ns[nH]2.[F],4.21745126650203,3.596700897539995,0.0,H10C8SN3F
CN1C=C[C](C(=C1)C#N)[C]1C=CN(C)C=C1N,2.0033279916184257,0.3152711081762391,0.0,H14C13N4
CN1C=C[C]([C]2C=CN(C)C=C2OC)C(=C1)N,1.6857495960008235,-0.0632295758354302,0.0,H17C13N3O
C#Cn1c2ccccc2n(N)s1,3.63660582597513,2.53405775573774,0.0,H7C8SN3
c1cc(c2c(c1)n(F)s[nH]2)C(Cl)(Cl)Cl,4.892603425936249,4.456881413987139,0.0,H4C7SN2Cl3F
C#CC1=CN(C)C=C[C]1[C]1C=CN(C)C=C1CC,1.8483898658647375,0.1937918170129706,0.0,H9C8N
C#CC1=CN(C)C=C[C]1[C]1C=CN(C)C=C1Cl,2.0571343153693307,0.0993654551035434,0.0,H13C14N2Cl
CNn1c2ccccc2n(C#N)s1,4.031826699903467,3.1606099699798507,0.0,H8C8SN4
c1ccc2c(c1)n(C#N)sn2N(=O)=O,4.634386198891297,3.1331074351961434,0.0,H4C7S(N2O)2
c1ccc2c(c1)n(C(F)(F)F)sn2O,4.453683178411302,2.5264009213075043,0.0,H5C7SN2OF3
CCC1=CN(C)C=C[C]1[C]1C=CN(C)C=C1O,1.7491508605067794,0.004478477932571,0.0,H18C14N2O
CN1C=C[C]([C]2C=CN(C)C=C2OCCOC)C(=C1)N(=O)=O,2.1606627491251857,1.200869293924916,0.0,H19C15N3O4
CN(C)C1=C[C](C=CN1C)[C]1C=CN(C)C=C1N,1.6514846078331176,-0.2323543130318284,0.0,H10C7N2
c1cc2c(cc1C(Cl)(Cl)Cl)n(C(Br)(Br)Br)s[nH]2,3.931078357936349,2.8431595930829645,0.0,H4C8SBr3N2Cl3
C#CC1=CN(C)C=C[C]1[C]1C=CN(C)C=C1C#N,2.2670403535463266,0.3777425678614237,0.0,H13(C5N)3
CCC1=CN(C)C=C[C@H]1[C@@H]1C=CN(C)C=C1C(=O)O,2.0165399293815427,0.3676622086655698,0.0,H18C15(NO)2
COn1c2cc(ccc2[nH]s1)C(Cl)(Cl)Cl,4.013288955525786,2.7125774789979915,0.0,H7C8SN2Cl3O
c1ccc2c(c1)n(N(=O)=O)sn2O,4.57325325629572,3.130053422673518,0.0,H5C6S(NO)3
c1cc(c2c(c1)n(N(=O)=O)s[nH]2)C(F)(F)F,4.307606573145312,3.020346728569712,0.0,H4C7SN3O2F3
c1cc2c(cc1C(Cl)(Cl)Cl)[nH]sn2C(Br)(Br)Br,3.946653898304794,4.367293647048063,0.0,H4C8SBr3N2Cl3
c1cc2c(c(c1)O)n(C(Cl)(Cl)Cl)s[nH]2,3.884716483824013,4.58908308429236,0.0,H5C7SN2Cl3O
CN1C=C[C]([C]2C=CN(C)C=C2F)C(=C1)C(F)(F)F,2.1645589947998816,0.0886623307356786,0.0,H12C13(NF2)2
c1cc(c2c(c1)[nH]sn2C(F)(F)F)C(=O)O,4.134402367869916,2.643090978972032,0.0,H5C8SN2O2F3
Cn1ccc(=c2cc(n(C)cc2OCCOCCOCCOC)N(=O)=O)cc1,2.363604988722364,1.5381564921495738,0.0,H27C19(NO2)3
C=Cc1cc(cc2c1[nH]s[nH]2)C(F)(F)F,3.4981362664708286,0.6774165314142011,0.0,H7C9SN2F3
C#CC1=C[C]([C]2C=CN(C)C=C2)C(=CN1C)N,1.8249746550878627,0.3359149619551318,0.0,H15C14N3
CN(C)c1cn(C)cc(c1=c1ccn(C)cc1)O,1.8978046504977104,-0.1276749248158011,0.0,H19C14N3O
CCC1=C[C]([C]2C=CN(C)C=C2)C(=CN1C)O,1.8033192453236555,-0.1828840988076989,0.0,H18C14N2O
CNCn1ccc(=c2ccn(C)cc2)cc1c1ccccc1,1.90269733350724,0.174103542676312,0.0,H21C19N3
Cn1ccc(=c2cc(C(F)(F)F)n(C)cc2OC)cc1,2.1286644773877925,0.3761170060439327,0.0,H15C14N2OF3
C#Cn1c2cc(ccc2[nH]s1)N(C)C,3.274471347152576,3.129998874731973,0.0,H11C10SN3
C=CC1=C[C]([C]2C=CN(C)C=C2)C(=CN1C)O,1.8467627529986204,0.3433567665830197,0.0,H16C14N2O
Cn1ccc(=c2cc(n(C)cc2F)OC)cc1,1.8157528449897653,-0.0392437885988328,0.0,H15C13N2OF
CCc1cc(=c2ccn(C)cc2)cc(C(=O)O)n1C,2.125546363016474,0.7640991021922674,0.0,H18C15(NO)2
C#Cc1cc(=c2ccn(C)cc2)cc(C#N)n1C,2.3064883103266767,0.7415654776719749,0.0,H13(C5N)3
c1c(cc2c(c1F)[nH]s[nH]2)C(Br)(Br)Br,3.6570770779741,2.8392471837811173,0.0,H4C7SBr3N2F
C#CC1=CN(C)C=C[C]1[C]1C=CN(C)C=C1C,1.861140921695187,-0.0212927570413739,0.0,H16C15N2
C=Cc1c(C)ccc2c1[nH]s[nH]2,3.3604368707579853,0.4224253118860361,0.0,H10C9SN2
CCc1ccc2c(c1C=C)[nH]s[nH]2,3.3527697313780664,0.3933357357251226,0.0,H12C10SN2
CCc1cc(cc2c1[nH]s[nH]2)N(=O)=O,3.623875769169536,2.016831025882857,0.0,H9C8SN3O2
Cc1cc(=c2ccn(C)cc2)c(cn1C)OCCOCCOCCOC,1.7337506893760293,-0.3275980967540817,0.0,H15C10NO2
C#Cn1c2cccc(c2[nH]s1)Cl,3.701538838323904,2.7656880212685797,0.0,H5C8SN2Cl
C#Cc1cn(C)c(cc1=c1ccn(C)cc1)OCCOCCOC,1.8462750134400268,0.1969152539364587,0.0,H24C19N2O3
CNc1cc(=c2ccn(C)cc2)cc(Cl)n1C,1.9038114355877045,1.2029572805528006,0.0,H16C13N3Cl
C=Cc1cccc2c1[nH]sn2O,3.965956870351511,3.9249137523162063,0.0,H8C8SN2O
C#CCn1ccc(=c2ccn(cc2)CN(C)C)cc1,1.988003413714614,-0.4708675729365494,0.0,H19C16N3
c1cc(c2c(c1)n(N)s[nH]2)Cl,3.5894387642343646,1.8160614873937448,0.0,H6C6SN3Cl
C=Cc1cccc2c1[nH]sn2OC,3.954428024707886,3.732995407595445,0.0,H10C9SN2O
Cn1ccc(=c2cc(C#N)n(C)cc2F)cc1,2.2819270894011425,0.6471240406550351,0.0,H12C13N3F
CC(C)(C)[C]1[CH]N(C)C=C[C]1[C]1C=CN(C)C=C1N,1.6291124883151498,-0.1344015897906501,0.0,H23C16N3
C#Cc1cn(C)c(cc1=c1ccn(C)cc1)N,1.807955820231291,0.0463529500062578,0.0,H15C14N3
CCc1cn(C)c(cc1=c1ccn(C)cc1)OCCOC,1.6156236556686054,-0.2639657858220743,0.0,H24C17(NO)2
CN1C=C[C]([C]2C=CN(C)C(=C2)C#N)C(=C1)O,2.1530010384172784,0.6719785132205289,0.0,H13C13N3O
Cc1cc(c2c(c1)[nH]s[nH]2)Cl,3.485851894032385,1.3975664801124368,0.0,H7C7SN2Cl
C#Cn1c2ccccc2n(O)s1,4.065152002794639,2.530727569437295,0.0,H6C8SN2O
C#Cn1c2c(cccc2N(C)C)[nH]s1,3.525304060416238,2.6002981771249325,0.0,H11C10SN3
CC(C)(C)c1cn(C)c(cc1=c1ccn(C)cc1)N(C)C,1.7871070919441991,-0.3113956251785565,0.0,H9C6N
CN(C)c1cc(=c2ccn(C)cc2)cc(n1C)OCCOC,1.6967063141324616,-0.2677173295182,0.0,H25C17N3O2
c1cc2c(c(c1C(Br)(Br)Br)Cl)[nH]s[nH]2,3.631973610282876,2.7604790086566937,0.0,H4C7SBr3N2Cl
CCC1=C[C]([C]2C=CN(C)C=C2)C(=CN1C)N,1.6856736707937672,-0.2784745065713649,0.0,H19C14N3
c1ccc2c(c1)n(C(=O)O)s[n]2.[Cl],4.592528635979397,4.014177135098725,0.0,H5C7SN2ClO2
Cn1ccc(=c2cc(N)n(C)cc2C#N)cc1,1.983548112880817,0.3069232460962667,0.0,H14C13N4
C=Cc1c(ccc2c1[nH]s[nH]2)C#N,3.584684105525957,0.972543342109566,0.0,H7C9SN3
C#Cc1c(ccc2c1[nH]s[nH]2)O,3.4139141299689078,0.4975462228190737,0.0,H6C8SN2O
C=Cc1cc(c2c(c1)[nH]s[nH]2)Cl,3.526954466223833,0.5784914148112876,0.0,H7C8SN2Cl
C=Cc1ccc(c2c1[nH]s[nH]2)N(=O)=O,3.637292420889571,2.0238233991382004,0.0,H7C8SN3O2
CCc1c(ccc2c1[nH]s[nH]2)N(=O)=O,3.5847785018209835,2.482901156815933,0.0,H9C8SN3O2
C#Cc1cccc2c1[nH]sn2C(=O)O,3.791572384908795,2.5081094018620207,0.0,H6C9S(NO)2
CCc1cccc2c1[nH]sn2N,3.4645902438802296,1.5860055881727022,0.0,H11C8SN3
COn1c2cccc(c2[nH]s1)F,4.040914444952795,1.9112513109335847,0.0,H7C7SN2OF
C#Cc1cc(CC)c2c(c1)[nH]s[nH]2,3.4656340970483144,2.2689451340935194,0.0,H10C10SN2
Cn1ccc(=c2c(cn(C)cc2OC)N)cc1,1.6070514221188206,-0.1254828845725568,0.0,H17C13N3O
CN(C)c1cc(=c2ccn(C)cc2)cc(C(=O)O)n1C,2.160252224582655,0.7800112010896556,0.0,H19C15N3O2
C=Cc1cccc2c1[nH]sn2C(F)(F)F,4.044639558230847,0.6284882618325356,0.0,H7C9SN2F3
c1cc(c2c(c1)n(C(F)(F)F)s[nH]2)Cl,4.108915981663449,2.6837842538603582,0.0,H4C7SN2ClF3
C#Cc1cccc2c1[nH]sn2F,4.726371035708871,4.41201274273917,0.0,H5C8SN2F
CNc1c(c2ccccc2)c(=c2ccn(C)cc2)ccn1C,1.7977490940953431,-0.2587784661103796,0.0,H21C19N3
CNc1cc(=c2ccn(C)cc2)cc(NC)n1C,1.5675320735586866,-0.4586840295582077,0.0,H10C7N2
CNc1cccc2c1[nH]sn2O,3.8589441250202072,1.9041213188262192,0.0,H9C7SN3O
C#Cc1cccc2c1[nH]sn2NC,3.549875725065794,0.5441790325763578,0.0,H9C9SN3
CC(C)(C)c1cn(C)c(cc1=c1ccn(C)cc1)C#N,2.1094282521749848,0.4189383308745165,0.0,H21C17N3
Cc1cc(cc2c1[nH]s[nH]2)N(=O)=O,3.616327502715285,2.017029347889184,0.0,H7C7SN3O2
Cn1ccc(=c2cc(Cl)n(C)cc2C#N)cc1,2.290608244676696,0.3959609675926914,0.0,H12C13N3Cl
C#Cc1c(ccc2c1[nH]s[nH]2)N(C)C,3.280181296866067,0.493800173100317,0.0,H11C10SN3
C#Cc1c(ccc2c1[nH]s[nH]2)C(Cl)(Cl)Cl,3.563218778160808,2.7366591292098748,0.0,H5C9SN2Cl3
CNc1cc(=c2ccn(C)cc2)c(cn1C)F,1.7933466105620028,-0.1118405933324537,0.0,H16C13N3F
c1cc2c(c(c1C(=O)O)C(F)(F)F)[nH]s[nH]2,3.465376829744492,1.7693131489810183,0.0,H5C8SN2O2F3
Cn1ccc(=c2cc(n(C)cc2C#N)OC)cc1,1.949964535860636,0.3455089122122445,0.0,H15C14N3O
CNc1cn(C)cc(c2ccccc2)c1=c1ccn(C)cc1,1.784272884813254,-0.2263230404081695,0.0,H21C19N3
Cc1cccc2c1[nH]sn2C(F)(F)F,3.961392974329647,2.5533335272572004,0.0,H7C8SN2F3
Cn1c2cccc(c2[nH]s1)F,3.184137095735059,2.189293013454153,0.0,H7C7SN2F
CNc1cc(=c2ccn(C)cc2)cc(C(F)(F)F)n1C,1.9946194916243256,0.3930994103007834,0.0,H16C14(NF)3
C=Cc1cc(=c2ccn(C)cc2)cc(N)n1C,1.8733115042865396,0.3215542248704879,0.0,H17C14N3
C#Cc1cccc2c1[nH]sn2N(=O)=O,3.315975148468715,3.655027045757015,0.0,H5C8SN3O2
CCC1=CN(C)C=C[C]1[C]1C=CN(C)C(=C1)C(Br)(Br)Br,2.1651646576006898,3.720742929633707,0.0,H17C15Br3N2
COc1cccc2c1[nH]sn2O,3.8735413535156114,1.7400170819579217,0.0,H8C7S(NO)2
C#Cc1cc(=c2ccn(C)cc2)c(cn1C)C(C)(C)C,1.9251987016556087,0.3083505620903453,0.0,H11C9N
Cn1ccc(=c2cc(n(C)cc2N)OC)cc1,1.6138556313795562,-0.1518271640838064,0.0,H17C13N3O
c1cc2c(c(c1C(Br)(Br)Br)F)[nH]s[nH]2,3.680198993557133,2.774782781425165,0.0,H4C7SBr3N2F
CN(C)Cn1ccc(=c2ccn(C)cc2)c(c1)C(Cl)(Cl)Cl,2.185691448017314,3.304331914334034,0.0,H6C5NCl
CNC1=CN(C)[CH][C](C1=c1ccn(C)cc1)N(=O)=O,2.6081788823299576,1.135476626875607,0.0,H16C13(N2O)2
Cc1cc(=c2ccn(C)cc2)ccn1CNC,1.8280030698639167,-0.557591853330814,0.0,H19C14N3
C#Cc1cccc2c1[nH]sn2C(Br)(Br)Br,3.8695465726719696,2.8723130914964714,0.0,H5C9SBr3N2
CCc1cccc2c1[nH]sn2C(Br)(Br)Br,3.87227029070491,2.9508600435452537,0.0,H9C9SBr3N2
CCc1cn(C)cc(c1=c1ccn(C)cc1)O,1.6959139104743373,-0.1099038611850118,0.0,H18C14N2O
CNCn1ccc(=c2ccn(C)c(c2)C(F)(F)F)cc1,2.1350426380136924,0.2731206092663343,0.0,H16C14(NF)3
c1cc2c(c(c1)N(=O)=O)[nH]s[nH]2,3.574552752199088,1.9976981440573585,0.0,H5C6SN3O2
c1ccc(cc1)c1ccc(c2c1[nH]s[nH]2)F,3.5553153759443377,0.3002873093078961,0.0,H9C12SN2F
COc1cccc2c1[nH]sn2C(Cl)(Cl)Cl,3.749542214734538,4.2889388209528985,0.0,H7C8SN2Cl3O
c1ccc(cc1)c1cccc2c1[nH]s[nH]2,3.403133466764848,0.323195588332601,0.0,H10C12SN2
CCc1cn(C)cc(c1=c1ccn(C)cc1)N,1.5964243345311844,-0.2029138379097275,0.0,H19C14N3
COc1c(ccc2c1[nH]s[nH]2)C(=O)O,3.5400663667729533,0.8670255357843417,0.0,H8C8SN2O3
C#Cc1cn(C)c(cc1=c1ccn(C)cc1)C(Cl)(Cl)Cl,2.30529538775736,3.4745654637241388,0.0,H13C15N2Cl3
c1cc2c(c(c1C(=O)O)N(=O)=O)[nH]s[nH]2,3.618269707074069,2.200536008951167,0.0,H5C7SN3O4
CNc1cc(=c2ccn(cc2)CC(F)(F)F)ccn1C,1.8203199247451267,-0.3219173693381889,0.0,H16C14(NF)3
Cc1cccc2c1[nH]sn2O,3.8897775018973335,1.6409326100489126,0.0,H8C7SN2O
c1c(cc2c(c1F)[nH]s[nH]2)C(Cl)(Cl)Cl,3.664536542762653,3.0811931788281077,0.0,H4C7SN2Cl3F
COc1cccc2c1[nH]sn2N,3.4070619089448884,2.202432041032444,0.0,H9C7SN3O
C#Cc1ccc(c2c1[nH]s[nH]2)N(=O)=O,3.626691829021729,2.125940424671717,0.0,H5C8SN3O2
CN(C)c1cc(=c2ccn(C)cc2)cc(n1C)O,1.8430473759559391,-0.2927384745329617,0.0,H19C14N3O
CNCN1C=C[C](C=C1)[C]1C=CN(C)C=C1NC,1.721023677518679,-0.323852634794457,0.0,H10C7N2
CNCn1ccc(=c2ccn(C)cc2)cc1C(F)(F)F,2.1737372204202985,0.1937679281378224,0.0,H16C14(NF)3
CNc1c(ccc2c1[nH]s[nH]2)C#N,3.487141661922214,2.292199906545284,0.0,H8C8SN4
COc1c(ccc2c1[nH]s[nH]2)C#N,3.593342329769803,2.3562929823907326,0.0,H7C8SN3O
C#Cc1cc(cc2c1[nH]s[nH]2)F,3.532924613905925,0.6905663700759761,0.0,H5C8SN2F
CNCn1ccc(=c2ccn(C)cc2)cc1,1.8688602987727791,-0.4282228717587713,0.0,H17C13N3
c1cc2c(c(c1C#N)N(=O)=O)[nH]s[nH]2,3.7493677271828343,2.3066710157232597,0.0,H4C7S(N2O)2
c1cc(c2c(c1)[nH]s[nH]2)C(F)(F)F,3.5865825458145992,0.4246653747810343,0.0,H5C7SN2F3
Cn1ccc(=c2cc(C(F)(F)F)n(C)cc2C(=O)O)cc1,2.402520960234688,0.574326459447184,0.0,H13C14N2O2F3
Cn1ccc(=c2ccn(cc2)CC(=O)O)c(c1)OCCOC,1.9124214167655735,0.1149651183310198,0.0,H10C8NO2
Cn1ccc(=c2cc(C(F)(F)F)n(C)cc2N)cc1,1.969637751413393,0.3849894736755233,0.0,H14C13(NF)3
Cn1ccc(=c2ccn(cc2)CN(=O)=O)c(c1)C(Br)(Br)Br,2.4607324532640638,3.4809043719084003,0.0,H12C13Br3N3O2
CN1C=C[C]([C]2C=CN(C)C=C2O)C(=C1)C(F)(F)F,2.089725980303774,0.1212065771156631,0.0,H13C13N2OF3
Cn1ccc(=c2ccn(cc2)CN(=O)=O)c(c1)C(Cl)(Cl)Cl,2.4109080366339186,3.337005844719533,0.0,H12C13N3Cl3O2
Cn1ccc(=c2ccn(cc2)CN(=O)=O)cc1c1ccccc1,2.187200741032575,1.703067726144218,0.0,H17C18N3O2
Cn1ccc(=c2ccn(cc2)CN(=O)=O)c(c1)c1ccccc1,2.1784024026506814,1.7206505767986529,0.0,H17C18N3O2
Cn1ccc(=c2cc(C#N)n(C)c(c2)C(F)(F)F)cc1,2.501144487619604,0.9099360540836644,0.0,H12C14(NF)3
C#CC(C#C)n1ccc(=c2ccn(C)cc2)cc1,2.021743192240683,2.2732250575551007,0.0,H7C8N
Cn1ccc(=c2cc(N)n(C)cc2N(=O)=O)cc1,2.2424584111555306,1.3361293686662976,0.0,H7C6N2O
Cn1ccc(=c2cc(C#N)n(C)c(c2)C(Br)(Br)Br)cc1,2.645406186109176,3.5763712454296184,0.0,H12C14(BrN)3
Cn1ccc(=c2cc(n(C)cc2N(=O)=O)O)cc1,2.331897375389963,1.3966842924870435,0.0,H13C12(NO)3
Cn1ccc(=C2C=CN(C)[C](C#N)[C]2C(Cl)(Cl)Cl)cc1,2.496216720968369,3.8973409686310334,0.0,H12C14(NCl)3
CN1C=C[C]([C]2C=CN(C)C=C2N)C(=C1)C(F)(F)F,1.8798206387378744,0.0463412246186636,0.0,H14C13(NF)3
Cn1ccc(=c2c(cn(C)cc2N)c2ccccc2)cc1,1.7541274987976068,-0.2083266257053764,0.0,H19(C6N)3
CN1C=C[C@H](C=C1)[C@H]1C=C(C(=O)O)N(C)C=C1N(=O)=O,2.7531638321830543,1.2891692005156077,0.0,H13C13N3O4
Cn1ccc(=c2cc(C#N)n(C)cc2C(F)(F)F)cc1,2.404126997874846,0.7414133361031419,0.0,H12C14(NF)3
CNC1=CN(C)C=C([C]1[C]1C=CN(C)C=C1)O,1.6166174671066984,-0.0762743295766994,0.0,H17C13N3O
Cn1ccc(=c2ccn(C)cc2C(F)(F)F)cc1,2.098915245585522,-0.1166608042643928,0.0,H13C13N2F3
CCCn1ccc(=c2ccn(C)cc2)cc1,1.8343635158686085,-0.4930626089284486,0.0,H9C7N
Cn1ccc(=C2C=CN(C)[C]([C]2C(Cl)(Cl)Cl)C(F)(F)F)cc1,2.539789371150255,3.86150031072757,0.0,H12C14N2(ClF)3
Cn1ccc(=c2ccn(C)cc2c2ccccc2)cc1,1.8795092670385205,-0.1058460479238418,0.0,H9C9N
Cn1ccc(=c2c(cn(C)cc2C(Cl)(Cl)Cl)C(Cl)(Cl)Cl)cc1,2.8361517337849365,4.159006963740103,0.0,H6C7NCl3
Cn1ccc(=c2c(cn(C)cc2N(=O)=O)N(=O)=O)cc1,3.016024379839655,2.1663291062010104,0.0,H3C3NO
Cn1ccc(=C2C=CN(C)[C@@H]([C@@H]2C(Cl)(Cl)Cl)C(=O)O)cc1,2.3900481380711427,4.019080555715481,0.0,H13C14N2Cl3O2
Cn1ccc(=c2ccn(C)c(c2N(=O)=O)C(F)(F)F)cc1,2.513458667408122,1.873413557864842,0.0,H12C13N3O2F3
Cn1ccc(=c2c(cn(C)cc2c2ccccc2)c2ccccc2)cc1,1.9936645924623009,0.0882145238734666,0.0,H11C12N
Cn1ccc(=C2C=CN(C)[C]([C]2C(F)(F)F)O)cc1,2.012494045587664,-0.0346968996949725,0.0,H13C13N2OF3
Cn1ccc(=c2ccn(C)cc2C(Br)(Br)Br)cc1,2.2470202091732063,3.5002291865472217,0.0,H13C13Br3N2
Cn1ccc(=c2ccn(C)cc2C(Cl)(Cl)Cl)cc1,2.1526279404148227,3.330833761357644,0.0,H13C13N2Cl3
CNc1cn(C)c(cc1=c1ccn(C)cc1)O,1.7718839961758932,-0.1735041960149828,0.0,H17C13N3O
CNC1=CN(C)C(=C[C]1[C]1C=CN(C)C=C1)C#N,1.9781421088860955,0.5625655632844428,0.0,H8C7N2
Cn1ccc(=c2ccn(C)c(c2C#N)C(Cl)(Cl)Cl)cc1,2.583908412315941,3.977379379351624,0.0,H12C14(NCl)3
Cn1ccc(=c2ccn(C)c(c2C(=O)O)C(Br)(Br)Br)cc1,2.480103162577143,3.865944384154864,0.0,H13C14Br3(NO)2
Cn1ccc(=c2c(cn(C)cc2O)c2ccccc2)cc1,1.8590091492274952,-0.158359607803868,0.0,H18C18N2O
Cn1ccc(=c2cc(c3ccccc3)n(C)c(c2)N(=O)=O)cc1,2.645526871312177,1.6361887243270758,0.0,H17C18N3O2
Cn1ccc(=c2ccn(C)c(c2)c2ccccc2)cc1,1.8920321608617088,0.2199885972127959,0.0,H9C9N
Cn1ccc(=c2cc(c3ccccc3)n(C)c(c2)C(Cl)(Cl)Cl)cc1,2.3869069484368084,3.379652491524757,0.0,H17C19N2Cl3
Cn1ccc(=c2ccn(C)c(c2C#N)C(Br)(Br)Br)cc1,2.628506259550341,4.133373548969393,0.0,H12C14(BrN)3
Cn1ccc(=c2ccn(C)c(c2C(=O)O)C(F)(F)F)cc1,2.275553429548017,0.918264446417743,0.0,H13C14N2O2F3
Cn1ccc(=c2ccn(C)c(c2)C(F)(F)F)cc1,2.117644721367105,0.2743038582026202,0.0,H13C13N2F3
Cn1ccc(=c2ccn(C)cc2N(=O)=O)cc1,2.455313431355171,1.3074002589870362,0.0,H13C12N3O2
CN1C=C[C](C=C1)[C]1C=C(N(C)C=C1C(Cl)(Cl)Cl)N(=O)=O,2.6957187504827744,3.372223900734389,0.0,H12C13N3Cl3O2
Cn1ccc(=c2cc(C(Cl)(Cl)Cl)n(C)c(c2)N(=O)=O)cc1,3.0248094091308304,1.7153273607051234,0.0,H12C13N3Cl3O2
Cn1ccc(=c2ccn(C)c(c2)C(Cl)(Cl)Cl)cc1,2.186744095911854,3.480480554616952,0.0,H13C13N2Cl3
CC(C)n1ccc(=c2ccn(C)cc2)cc1,1.814202362105425,-0.4649824934771458,0.0,H9C7N
Cn1ccc(=C2C=CN(C)[C]([C]2C(Cl)(Cl)Cl)N(=O)=O)cc1,2.636626863031416,4.468171898800938,0.0,H12C13N3Cl3O2
Cn1ccc(=c2ccn(cc2)COCCOCCOCCOC)cc1,1.995343216478068,-0.3894938098077545,0.0,H28C19(NO2)2
CN1C=C[C](C=C1)[C]1C=CN(C)C(=C1O)OCCOCCOC,1.844426432560431,-0.0561813729858839,0.0,H24C17(NO2)2
Cn1ccc(=c2cc(n(C)cc2C(F)(F)F)N(=O)=O)cc1,2.698906773630006,1.6843510886988953,0.0,H12C13N3O2F3
CN1C=C[C]([C]2C=CN(C)C(=C2)N(=O)=O)C(=C1)O,2.497696399832057,1.6363175103702816,0.0,H13C12(NO)3
Cn1ccc(=c2ccn(cc2)CC(F)(F)F)cc1C(F)(F)F,2.292118062870577,0.3017661446225248,0.0,H6C7NF3
Cn1ccc(=c2c(cn(C)cc2C(=O)O)C(=O)O)cc1,2.763092629405582,0.9512972106072994,0.0,H7C7NO2
CN1C=C[C](C=C1)[C]1C=C(N(C)C=C1O)O,1.8182484880831908,-0.1303740274219307,0.0,H7C6NO
CC(=O)Cn1ccc(=c2ccn(C)c(c2)C#N)cc1,2.2859835393734103,0.585343238546193,0.0,H15C15N3O
Cn1ccc(=c2ccn(C)c(c3ccccc3)c2N)cc1,1.7707584653086088,0.1172005906570121,0.0,H19(C6N)3
CN(C)c1cc(=c2ccn(C)cc2)c(cn1C)N,1.7230395512648102,-0.2340823229846136,0.0,H10C7N2
Cn1ccc(=c2cc(C(Cl)(Cl)Cl)n(C)c(c2)C(Cl)(Cl)Cl)cc1,2.7459397920989432,3.5135406172572403,0.0,H6C7NCl3
Cn1ccc(=C2C=CN(C)[C]([C]2C(Cl)(Cl)Cl)C(Cl)(Cl)Cl)cc1,2.624482999302564,5.879049473785562,0.0,H6C7NCl3
Cn1ccc(=c2ccn(cc2)CN(=O)=O)cc1O,2.155108443088102,1.6366734461495072,0.0,H13C12(NO)3
CN1C=C[C](C=C1)[C]1C=CN(C)C=C1O,1.8424396940550647,-0.1335958008479791,0.0,H14C12N2O
Cn1ccc(=c2ccn(CF)c(c2)c2ccccc2)cc1,2.1315849201178936,0.2571219564029889,0.0,H17C18N2F
CN1C=C[C](C=C1)[C]1C=CN(C)C(=C1N)N(=O)=O,2.516155644805258,1.291668454557657,0.0,H7C6N2O
C#CCn1ccc(=c2ccn(C)cc2)cc1,1.950499372889317,-0.4830510047453571,0.0,H7C7N
CC(=O)Cn1ccc(=c2ccn(C)cc2C#N)cc1,2.221601761631609,0.2256185372949404,0.0,H15C15N3O
CN1C=C[C]([C]2C=CN(C)[CH][C]2C(Cl)(Cl)Cl)[C]([CH]1)C(Cl)(Cl)Cl,2.2883729192777538,4.827384974336018,0.0,H6C7NCl3
Cn1ccc(=c2ccn(cc2)COCCOCCOCCOC)cc1C(Cl)(Cl)Cl,2.31370599383954,3.437986726954114,0.0,H27C20N2Cl3O4
CCCn1ccc(=c2ccn(C)cc2N(=O)=O)cc1,2.450236842929008,1.3314655987029256,0.0,H17C14N3O2
Cn1ccc(=c2ccn(cc2)CC(F)(F)F)cc1,2.0226858408364934,-0.3189006853921454,0.0,H13C13N2F3
CN1C=C[C]([C]2C=CN(C=C2)CC(F)(F)F)C(=C1)O,2.013388225268136,-0.0961095780352478,0.0,H13C13N2OF3
Cn1ccc(=c2ccn(cc2)CC(Cl)(Cl)Cl)cc1C(Cl)(Cl)Cl,2.360478819778655,3.427060452909791,0.0,H6C7NCl3
Cn1ccc(=c2ccn(CF)c(c2)N)cc1,1.98126427232055,-0.2124864789388083,0.0,H14C12N3F
Cn1ccc(=c2ccn(cc2)CC(Cl)(Cl)Cl)c(c1)c1ccccc1,2.0711623307011906,2.294214373455907,0.0,H17C19N2Cl3
Cn1ccc(=c2ccn(C)c(c2C#N)OCCOCCOC)cc1,2.123669242847973,0.3270158298852039,0.0,H23C18(NO)3
CN1C=C[C]([C]2C=CN(C)C=C2N(=O)=O)[C]([CH]1)C(Cl)(Cl)Cl,2.5172450199039305,3.399322134218528,0.0,H12C13N3Cl3O2
Cn1ccc(=c2ccn(COC)c(c2)c2ccccc2)cc1,1.989655906630651,0.2153731247359247,0.0,H20C19N2O
C#CCn1ccc(=c2ccn(C)cc2c2ccccc2)cc1,1.9700635932473236,-0.2386364065772794,0.0,H9C10N
Cn1ccc(=c2ccn(CF)c(c2)C(Cl)(Cl)Cl)cc1,2.488941776545835,3.344355674891267,0.0,H12C13N2Cl3F
CN(C)c1cn(ccc1=c1ccn(C)cc1)CCl,2.205349485063925,2.048430982818536,0.0,H18C14N3Cl
Cc1cc(=c2ccn(C)cc2)ccn1Cc1ccccc1,1.8459774379058216,-0.4222865695941435,0.0,H20C19N2
Cn1ccc(=c2ccn(COC)c(c2)C(=O)O)cc1,2.306771855668194,0.7947121403318307,0.0,H16C14N2O3
CN(C)Cn1ccc(=c2ccn(C)cc2)cc1N(C)C,1.830180432281486,-0.2759377416427013,0.0,H6C4N
CCn1ccc(=c2ccn(C)cc2)cc1C(=O)O,2.153533935271844,0.7589747387406534,0.0,H8C7NO
CCn1ccc(=c2ccn(CC)cc2)cc1,1.8215195413227776,-0.632084532319277,0.0,H9C7N
Cn1ccc(=c2ccn(CN)c(c2)N)cc1,1.7106702874712938,-0.5797889954832498,0.0,H4C3N
CCn1ccc(=c2ccn(C)cc2)c(C)c1,1.769982094597799,-0.4234132460609543,0.0,H9C7N
C#Cc1cn(CC)ccc1=c1ccn(C)cc1,1.968886529464362,0.182619119402807,0.0,H16C15N2
Cn1ccc(=c2ccn(COC)c(c2)N(=O)=O)cc1,2.69071303138262,1.630827453127131,0.0,H15C13(NO)3
CCn1ccc(=c2ccn(C)cc2)cc1NC,1.678032044806605,-0.4434256515109154,0.0,H19C14N3
Cn1ccc(=c2ccn(cc2C#N)COC)cc1,2.2848192322868277,0.3998036013923411,0.0,H15C14N3O