smiles,IE,EA,charge,formula_pretty
c1(cc2c(cc1)nc(cn2)C)N(C)C,3.8910872402244414,0.996787125917399,0.0,H13C11N3
[C@@H]1(CC[C@H](SC1)CC)CC,4.606752137884177,-0.8750660565550787,0.0,H18C9S
c1cc2c(cc1C)C(=O)c1c(C2=O)c(ccc1)C#C,5.402413921694096,2.19418226510752,0.0,H10C17O2
c1(cc2c(cc1)nc(cn2)C(=O)O)C(=O)O,5.838921548061625,2.133910674374056,0.0,H3C5NO2
c1cc2c(cc1)C(=O)c1c(C2=O)c(c(cc1)C)F,5.669045401152834,2.1900689923219034,0.0,H9C15O2F
c1(c(c2c(cc1)nccn2)C)N,4.142574226719807,1.032984435272374,0.0,H3C3N
c1(cc2c(cc1)C(=O)c1c(C2=O)cc(cc1)O)O,5.16334575364599,2.0997771770576947,0.0,H4C7O2
c1c(c2c(cc1)C(=O)c1c(C2=O)c(ccc1)C)O,5.123894852594821,2.220649276119366,0.0,H10(C5O)3
c1cc2c(cc1)[C](c1c(C2=O)c(ccc1N([CH2])C)C)O,2.7228949690703304,2.044080633573321,0.0,H15C17NO2
c1(cc2c(cc1N)nccn2)N,4.125995865255026,0.9507927088303404,0.0,H2C2N
c1cc2c(c(c1)NC)C(=O)c1c(C2=O)c(ccc1)NC,4.184940016651671,1.9163771438012192,0.0,H7C8NO
C1CCC(SC1)(F)F,5.434958614337665,-0.6303834453086892,0.0,H8C5SF2
c1(cc2c(cc1)C(=O)c1c(C2=O)c(ccc1)O)C,5.170349721667298,2.262305910176656,0.0,H10(C5O)3
c1c(c2c(c(c1)C)nccn2)OC,4.405895912089909,1.222597744481027,0.0,H10C10N2O
c1c(c2c(cc1)ncc(n2)C)CC,5.0196562234901645,1.122257622313191,0.0,H12C11N2
c1cc2c(cc1)C(=O)c1c(C2=O)c(c(cc1)C)C#N,6.10691189328063,2.3610038389320835,0.0,H9C16NO2
c1cc2c(cc1)nc(c(n2)NC)NC,3.993800377380103,0.8548627492542438,0.0,H6C5N2
c1(cc2c(cc1)ncc(n2)C)N(C)C,3.9362268960408975,0.985550135972153,0.0,H13C11N3
c1cc2c(cc1)C(=O)c1c(C2=O)c(ccc1OC)OC,4.692096463693451,2.076934616246581,0.0,H3C4O
c1c(c2c(cc1)C(=O)c1c(C2=O)c(ccc1)C)N,4.431187652547669,1.982288304721442,0.0,H11C15NO2
c1cc2c(cc1)C(=O)c1c(C2=O)c(ccc1F)C,5.57998479760281,2.152892103081831,0.0,H9C15O2F
c1(c(c2c(cc1)nccn2)NC(=O)C)NC(=O)C,4.446646066922403,1.4421967224930996,0.0,H6C6N2O
c1cc2c(cc1NC(=O)C)C(=O)c1c(C2=O)c(ccc1)C,5.057100059127697,2.1433776889731235,0.0,H13C17NO3
c1(cc2c(cc1)ncc(n2)C)N,4.224955513098029,1.0320325157568733,0.0,H3C3N
c1(cc2c(cc1)C(=O)c1c(C2=O)c(ccc1)F)C,5.709391398909792,2.2118884268653347,0.0,H9C15O2F
c1(cc2c(cc1)C(=O)c1c(C2=O)c(ccc1)C#N)C#N,6.333912865667662,2.630258539336501,0.0,H3C8NO
c1cc2c(cc1O)C(=O)c1c(C2=O)c(ccc1)C,5.239554284538462,2.054937328100641,0.0,H10(C5O)3
c1cc2c(cc1CC)C(=O)c1c(C2=O)c(ccc1)C,5.597367682681215,2.0587019142127247,0.0,H14C17O2
c1(cc2c(cc1)C(=O)c1c(C2=O)c(ccc1)C)O,5.250864796923997,2.054306549178,0.0,H10(C5O)3
C1CC[C@@]([S])(N[C]1C)C.[CH]O,3.674087373868679,3.4762882245973743,0.0,H15C8SNO
o1nccn1,7.350079954333159,0.8300264321193027,0.0,H2C2N2O
c1cc2c(cc1)C(=O)c1c(C2=O)c(cc(c1)C)N(C)C,4.121311066331691,1.943858600648673,0.0,H15C17NO2
c1cc2c(cc1)C(=O)c1c(C2=O)c(c(cc1)C)NC(=O)C,4.997844127855933,2.3449587607297877,0.0,H13C17NO3
c1cc2c(c(c1)C)C(=O)c1c(C2=O)c(ccc1)C#C,5.411095983106497,2.144728369550285,0.0,H10C17O2
c1c(c2c(cc1)C(=O)c1c(C2=O)c(ccc1)C)CC,5.535394071591872,1.9969611944776264,0.0,H14C17O2
C1[C@H](C[C@H](SC1)CC)CC,4.647099640425585,-0.8594576693598355,0.0,H18C9S
c1cc2c(cc1)C(=O)c1c(C2=O)c(c(cc1)C)OC,4.964102322077087,2.0904779124772177,0.0,H12C16O3
c1cc2c(cc1)C(=O)c1c(C2=O)c(ccc1O)C,4.985069817173644,2.204377986957843,0.0,H10(C5O)3
c1c(c2c(cc1)C(=O)c1c(C2=O)c(ccc1)NC)NC,4.096189797031547,1.7947513900886407,0.0,H7C8NO
c1cc2c(cc1)C(=O)c1c(C2=O)c(c(cc1)C#N)C#N,6.166310431251622,2.620863327419648,0.0,H3C8NO
c1cc2c(cc1C#C)C(=O)c1c(C2=O)c(ccc1)C#C,5.4945531368626686,2.320510268401995,0.0,H4C9O
c1cc2c(cc1)C(=O)c1c(C2=O)c(c(cc1)C)NC,4.174237422908481,2.047697442821664,0.0,H13C16NO2
C1CC[C@@](SC1)(C)NC(=O)C,4.401490701971488,1.1693506146708388,0.0,H15C8SNO
c1c(c2c(cc1)ncc(n2)OC)OC,4.486961998818151,1.0838525908053271,0.0,H5C5NO
c1(cc2c(cc1)C(=O)c1c(C2=O)c(ccc1)C)C(Cl)(Cl)Cl,5.711806586108287,2.2909594756070875,0.0,H9C16Cl3O2
C1(=O)C(=CC(=O)O1)C,7.095364307213094,2.175520790574956,0.0,H4C5O3
c1cc2c(c(c1)F)C(=O)c1c(C2=O)c(ccc1)F,5.913951151190849,2.305122456685785,0.0,H3C7OF
c1c(c2c(cc1)nc(cn2)NC(=O)C)C,4.911239193873916,1.203401487347583,0.0,H11C11N3O
c1cc2c(cc1)nc(c(n2)N(C)C)C,4.202217574622045,0.9285144849160134,0.0,H13C11N3
c1c(c2c(cc1)C(=O)c1c(C2=O)c(ccc1)C#C)C#C,5.44615664847297,2.2657639872573783,0.0,H4C9O
c1c(c2c(cc1)ncc(n2)C=C)C=C,4.673528541897758,1.4030853133877828,0.0,H5C6N
[N]([N][CH]C)[CH]C,4.779502865449649,0.2652048367495809,0.0,H4C2N
c1c(c2c(cc1)nc(cn2)NC(=O)C)NC(=O)C,4.6274143402966725,1.3715747376860237,0.0,H6C6N2O
C(=NC#N)(SC)SC,5.641453618476225,1.438246867668204,0.0,H3C2SN
c1(cc2c(cc1)C(=O)c1c(C2=O)c(ccc1)CC)C,5.593028724122268,2.0652743749975344,0.0,H14C17O2
C(=O)(C#CC(=O)OCC)OCC,6.59198601932585,1.7125915091288335,0.0,H5(C2O)2
c1cc2c(cc1)C(=O)c1c(C2=O)c(c(cc1)F)C,5.678072736931062,2.1608170676059677,0.0,H9C15O2F
c1cc2c(c(c1)O)C(=O)c1c(C2=O)c(ccc1)C,5.138489572201797,2.214386663201003,0.0,H10(C5O)3
c1c(c2c(cc1)C(=O)c1c(C2=O)c(ccc1)F)F,5.922215112413687,2.3044560743852345,0.0,H3C7OF
c1c(c2c(cc1)C(=O)c1c(C2=O)c(ccc1)N(C)C)C,4.128006234133499,1.871918050137174,0.0,H15C17NO2
C(N(C)C)C#C,4.215784416860151,-0.9030309943867904,0.0,H9C5N
c1cc2c(cc1)C(=O)c1c(C2=O)c(ccc1C)C#C,5.262202874438662,2.1458962903103385,0.0,H10C17O2
c1cc2c(cc1OC)C(=O)c1c(C2=O)c(ccc1)OC,5.099557450737484,2.112252116255695,0.0,H3C4O
S1(=O)(=O)c2c(C(=C1)Cl)cccc2,5.5500313933458525,1.605714113220165,0.0,H5C8SClO2
c1cc2c(cc1)C(=O)c1c(C2=O)c(c(cc1)C)C,5.421160461731779,2.042576339293737,0.0,H6C8O
c1cc2c(c(c1)N)C(=O)c1c(C2=O)c(ccc1)C,4.447650082629115,1.9717749525530963,0.0,H11C15NO2
c1cc2c(cc1)C(=O)c1c(C2=O)c(ccc1C(Cl)(Cl)Cl)C,5.8252349811751625,2.184162756014848,0.0,H9C16Cl3O2
C(CN(C)S)N(C)S,3.889174636407552,1.3825884636695265,0.0,H6C2SN
C1CC[C@@](SC1)(C)C#N,5.117776794706151,1.2069668589152571,0.0,H11C7SN
c1c(c2c(cc1)ncc(n2)N(C)C)C,4.130317841188662,0.9030708096957824,0.0,H13C11N3
C(=O)(SC)C,5.5626215564258015,0.3394711115866813,0.0,H6C3SO
c1cc2c(cc1)C(=O)c1c(C2=O)c(ccc1c1ccccc1)C,6.269489540420182,3.4556746205489617,0.0,H14C21O2
c1cc2c(cc1C(=O)O)C(=O)c1c(C2=O)c(ccc1)C(=O)O,6.09621069276327,2.787587215095846,0.0,H4C8O3
c1cc2c(c(c1)C)C(=O)c1c(C2=O)c(ccc1)CC,5.541966385431442,2.006068224234332,0.0,H14C17O2
C(COC)c1ccccc1,5.130948524929044,-0.6048682150325475,0.0,H12C9O
c1cc2c(cc1)C(=O)c1c(C2=O)c(c(cc1)C(=O)O)C(=O)O,6.164716723089077,2.6940830878025737,0.0,H4C8O3
O(C(=O)C)[N][O],6.123526437720647,3.090244972201253,0.0,H3C2NO3
c1c(c2c(c(c1)NC(=O)C)nccn2)NC(=O)C,4.220841157298855,1.4836670456548746,0.0,H6C6N2O
c1c(c2c(cc1)nc(cn2)CC)C,5.0461964303991405,1.1247444516407996,0.0,H12C11N2
c1c(c2c(cc1)C(=O)c1c(C2=O)c(ccc1)O)O,5.086331178020918,2.22870607707373,0.0,H4C7O2
O=C1N[C@H]2[C@@H](O1)Cc1c2cccc1,5.337789957191125,-0.2366188620602769,0.0,H9C10NO2
O(C(=O)C)C=C,5.416552537691677,0.2413761435578636,0.0,H3C2O
c1c(c2c(c(c1)N(C)C)nccn2)N(C)C,3.0093930934795936,1.1015860673520366,0.0,H4C3N
c1c(c2c(cc1)C(=O)c1c(C2=O)c(ccc1)NC)C,4.67200473433113,1.4807285971524835,0.0,H13C16NO2
c1c(c2c(cc1)ncc(n2)C#C)C,5.1354972805344,1.4796900801335142,0.0,H8C11N2
c1(cc2c(cc1)ncc(n2)C)NC(=O)C,4.833371851576521,1.2801891499599152,0.0,H11C11N3O
c1c(c2c(cc1)nc(cn2)c1ccccc1)C,4.890310061387572,1.2800414601748344,0.0,H12C15N2
c1cc2c(c(c1)C)C(=O)c1c(C2=O)c(ccc1)NC(=O)C,5.026031706501817,2.4416875023212925,0.0,H13C17NO3
c1cc2c(c(c1)OC)C(=O)c1c(C2=O)c(ccc1)C,5.07288541283342,2.056941900956736,0.0,H12C16O3
c12c3c(ccc1cccn2)cccn3,4.973699050622235,0.775335534306214,0.0,H4C6N
c1cc2c(cc1C#C)C(=O)c1c(C2=O)c(ccc1)C,5.501744098788185,2.197412422361231,0.0,H10C17O2
c1(cc2c(cc1)C(=O)c1c(C2=O)c(ccc1)NC)C,4.306365565329179,1.9401587422558808,0.0,H13C16NO2
C(=O)c1ccc(cc1)c1cccnc1,5.222397267556152,1.3570414668261948,0.0,H9C12NO
c1cc2c(cc1)C(=O)c1c(C2=O)c(c(cc1)C=C)C,5.053053775327134,2.1058403060393176,0.0,H12C17O2
c1c(c2c(cc1)C(=O)c1c(C2=O)c(ccc1)C#N)C#N,6.254146375582058,2.624668259848113,0.0,H3C8NO
[C@H](Sc1ccccc1)(OC(=O)C)C(F)(F)F,4.976011014152027,1.0013111273307005,0.0,H9C10SO2F3
Oc1cc2c(cc1)cccc2,4.357270837186297,0.2903618726973946,0.0,H8C10O
C=CC[C@]1(SC1)C.C=C,4.726196510060253,0.9410587995385868,0.0,H14C8S
Cl[C@]12[C@@]3(Cl)[C@]4(C([C@@]2([C@]2([C@]1(Cl)C([C@@]3([C@@]42Cl)Cl)(Cl)Cl)Cl)Cl)(Cl)Cl)Cl,6.8665354917699,1.8887924551323525,0.0,C5Cl6
C(C(=O)O)c1ccc(cc1)OC,4.636727866365254,-0.3040597381354017,0.0,H10(C3O)3
C(=O)(OC)c1cc(Cl)ccc1,5.586466173722874,0.923191032093746,0.0,H7C8ClO2
C(=[NH2])(C(=[NH2])[N]O)[N]O,4.630405889088797,0.2623556062186254,0.0,H3CN2O
c1cc2c(c(c1)C)C(=O)c1c(C2=O)c(ccc1)C(=O)O,5.968470366938709,2.546269261534326,0.0,H5(C4O)2
[C@](OC(C(C(F)(F)F)(F)F)(F)F)(C(F)(F)F)(C(=O)O)F,7.629684627035749,1.0799916763950024,0.0,HC6O3F11
c1(cc2c(cc1)C(=O)c1c(C2=O)c(ccc1)C)OC,5.094041716836363,2.009312256575504,0.0,H12C16O3
Cl[Zn],8.294696093027596,3.427165389737638,1.0,ZnCl
C(C(=O)O)(Cl)(Cl)Cl,7.055015561106847,2.8312027939624387,0.0,HC2Cl3O2
C(C#N)OC,6.469610292656943,0.2217759579149061,0.0,H5C3NO
c1cc2c(cc1)C(=O)c1c(C2=O)c(cc(c1)C)NC,4.277803751237661,1.944062348609441,0.0,H13C16NO2
c1cc2c(cc1)C(=O)c1c(C2=O)c(c(cc1)C)O,5.041482292164437,2.238241405853478,0.0,H10(C5O)3
c1cc2c(cc1N(=O)=O)C(=O)c1c(C2=O)c(ccc1)C,5.74372193658346,2.5649743776790275,0.0,H9C15NO4
[N](C#N)c1c(OC)cc(c(c1)OC)[N]C#N,5.410923247965547,3.338757710900245,0.0,H4C5N2O
N(=O)(=O)C1=CCCCC1,5.943479802080764,1.8535337126646485,0.0,H9C6NO2
S=c1[nH]cn[nH]1,4.688185042230179,-0.6481028943875571,0.0,H3C2SN3
C(C#N)(C#N)c1ccc(cc1)C,5.543697815855557,-0.0530575659853638,0.0,H4C5N
Oc1cc2c(cc1O)NCC2,3.3135271198658303,-0.4020263936057744,0.0,H9C8NO2
c1cc2c(cc1)C(=O)c1c(C2=O)cc(c(c1)C#N)C#N,6.221319247820793,2.717842272240523,0.0,H3C8NO
c1cc2c(cc1C)C(=O)c1c(C2=O)c(ccc1)N(C)C,4.138410495864809,1.9441026785985744,0.0,H15C17NO2
N(N=O)(C)C,5.107495751562601,0.8912151090713452,0.0,H6C2N2O
C(=O)(C)O.N(CCO)CCO,4.275384705471515,0.0535314627282788,0.0,H15C6NO4
[C@H]([C@@H](ON(=O)=O)c1ccccc1)(N(=O)=O)c1ccccc1,5.61948945474578,2.529824260339956,0.0,H12C14N2O5
c1cc2c(cc1NC)C(=O)c1c(C2=O)c(ccc1)NC,4.1390064768726,1.8196579534102055,0.0,H7C8NO
c1cc2c(cc1)C(=O)c1c(C2=O)c(c(cc1)NC)C,4.25091294468948,2.0012531099942863,0.0,H13C16NO2
c1cc2c(cc1C#N)C(=O)c1c(C2=O)c(ccc1)C,5.724985312369972,2.3417038764906466,0.0,H9C16NO2
C(=C)c1cc2c(cc1)cccc2,4.428512180305551,0.5453556256012235,0.0,H5C6
C(=S)(N)c1ccc(cc1)Cl,4.700773969919828,1.381746252290759,0.0,H6C7SNCl
c1cc2c(cc1)C(=O)c1c(C2=O)c(c(cc1)OC)OC,4.680648901170207,2.0309997240670783,0.0,H3C4O
C(F)(F)(F)c1cc(N(=O)=O)ccc1,6.521681311087013,2.2335701364296257,0.0,H4C7NO2F3
c1cc2c(cn1)N(C[C@]12CC=NC=C1C)C,3.890422373596812,0.4619816516074935,0.0,H15C13N3
NC1CCCCCC1,4.686118223340236,-0.8326180093321454,0.0,H15C7N
c12c3c(sc1cccc2)cccc3,4.584418228592403,0.3097182416182478,0.0,H8C12S
c1(c(c2c(cc1)nccn2)N(=O)=O)N(=O)=O,6.154659931673086,2.6984026500882465,0.0,HC2NO
[S@@](=O)(C(C)C)c1ccccc1,4.901526139384805,0.2753762207408727,0.0,H12C9SO
Clc1cccnc1,5.739099473501119,0.3482978912994441,0.0,H4C5NCl
Cn1c2c(c(=S)sc1=S)cccc2,4.874477659193508,2.029080643938505,0.0,H7C9S3N
c1cc2c(c(c1)C)C(=O)c1c(C2=O)c(ccc1)C,5.5752765397533945,2.01284936095326,0.0,H6C8O
c1cc2c(cc1N(C)C)C(=O)c1c(C2=O)c(ccc1)C,4.170352208731492,1.8936614860045664,0.0,H15C17NO2
c1cc2c(cc1)C(=O)c1c(C2=O)c(c(cc1)NC(=O)C)C,5.04146349998482,2.155274568585446,0.0,H13C17NO3
C(C[C@@H](C)O)CCCC,5.791381094433381,-0.994773611795972,0.0,H18C8O
c1c(c2c(cc1)C(=O)c1c(C2=O)c(ccc1)C)C,5.566719756826933,2.01239012803635,0.0,H6C8O
C(CO)c1c(C)n([c]s1)CC,4.567713301539333,-0.2074719079777423,0.0,H13C8SNO
c1c(c2c(cc1)C(=O)c1c(C2=O)c(ccc1)C)NC(=O)C,5.027302957050415,2.433977902297193,0.0,H13C17NO3
c1c(c2c(cc1)C(=O)c1c(C2=O)c(ccc1)OC)OC,4.896796689304756,2.0775450437773544,0.0,H3C4O
c1cc2c(cc1)[C](c1c(C2=O)c(ccc1[NH]=C)C)O,2.975536657029443,1.9463684235903205,0.0,H13C16NO2
c1cc2c(cc1N)C(=O)c1c(C2=O)c(ccc1)C,4.479080458220414,1.966426848937408,0.0,H11C15NO2
c1c(c2c(cc1)nc(cn2)C)N(C)C,3.630056894873269,1.1518811103174813,0.0,H13C11N3
S(C(C)C)c1ccccc1,4.407845169634674,-0.1108368578992666,0.0,H12C9S
S([O])([O])(O)C1=CC(=O)C(=O)c2c1cccc2,5.884242507881572,3.0404110832801963,0.0,H6C10SO5
CC1(C)C=CCC=C1,4.897056922650881,-1.040226130499286,0.0,H3C2
O=c1n(c(=O)[nH][nH]1)c1ccccc1,5.221945115035487,0.1368558793488774,0.0,H7C8N3O2
C(N)c1ccc(cc1)CN,4.634883198490206,-0.3852037201726488,0.0,H6C4N
C(CCCC(=O)O)[C@@H]1CCSS1,4.085482389587559,1.5689605106614182,0.0,H7C4SO
[S@](CCCC)(OCC)[O],5.281354091295361,1.2487844809635136,0.0,H14C6SO2
C(C(C)(C)C)C(C)C,5.838426153933687,-1.0837327767498208,0.0,H9C4
[O]n1c2c(n(cc1)[O])CCCC2,4.581561133967261,1.1033819588188636,0.0,H5C4NO
Nc1c2c(nc(c1)C)cccc2,4.265034101864876,0.4308485848756391,0.0,H5C5N
C1(=CC(=O)C(=CC1=O)Cl)Cl,6.362192835121823,3.133809195017966,0.0,HC3ClO
c1(occc1)C,4.612961985208676,-0.9304056628765464,0.0,H6C5O
N12CCN(CC1)CC2,3.539321324523917,-1.1333857834437366,0.0,H6C3N
C(=C(C)C)CCO,4.842888023536579,-0.574540567166332,0.0,H12C6O
C(=O)(O)c1c2c([nH]nn2)ccc1,5.794891373832433,1.4583226647697305,0.0,H5C7N3O2
C1(=C2CC2)CC1,4.927609733834833,-0.1656779543904121,0.0,H4C3
c1cc2c(c(c1)C#N)C(=O)c1c(C2=O)c(ccc1)C#N,6.351511743826995,2.6161740386174643,0.0,H3C8NO
Clc1c(Cl)c(Cl)c(c(c1Cl)Cl)Cl,5.67701092424395,1.3768386302341242,0.0,CCl
C(=O)(OC1CCCCC1)c1ccc(cc1)C,5.437825627513666,0.5720406406122494,0.0,H9C7O
S(CC(F)(F)F)c1ccc(cc1)OC,4.333879033639823,0.6744656554816175,0.0,H9C9SOF3
c1(ccccn1)c1ccccn1,5.128533754071759,0.785077441024987,0.0,H4C5N
c1(c(c2c(cc1)nccn2)N(C)C)C,3.836067724135865,1.1641848409322848,0.0,H13C11N3
C(CCCCC)CC(=O)O,6.2272975344345465,-0.2452903763409266,0.0,H8C4O
c1cc2c(cc1C)C(=O)c1c(C2=O)c(ccc1)NC(=O)C,5.047049588918162,2.4924312610106427,0.0,H13C17NO3
c1c(c2c(cc1)ncc(n2)NC(=O)C)C,4.865253386471158,1.20905558568993,0.0,H11C11N3O
c1cc2c(cc1)C(=O)c1c(C2=O)c(c(cc1)C)C#C,5.373003368212812,2.1742360976037163,0.0,H10C17O2
N1(C=CN=C[CH]1)[O],5.540901470648896,1.1062782976983727,0.0,H4C4N2O
C(#C)c1ccc(cc1)C=O,5.4451525048658365,1.439559387010013,0.0,H6C9O
c1c(c2c(cc1)C(=O)c1c(C2=O)c(ccc1)C(=O)O)C,5.963766253380163,2.493870054766012,0.0,H5(C4O)2
c1(cc2c(cc1)C(=O)c1c(C2=O)c(ccc1)NC(=O)C)C,5.050659725938749,2.489959528562031,0.0,H13C17NO3
c1(cc2c(cc1)C(=O)c1c(C2=O)c(ccc1)C)C,5.633891602113726,2.062992275963188,0.0,H6C8O
C(C)C,7.028463696837752,-1.2811432930347109,0.0,H8C3
C(=O)(CO)c1ccccc1,5.735250760671624,1.1994053105878266,0.0,H4C4O
Oc1c2c(ccc1)CC=CC2,4.615004931554358,-0.5218421739577024,0.0,H10C10O
c1cc2c(cc1)C(=O)c1c(C2=O)c(c(cc1)NC)NC,3.7365962981872154,1.907499078789988,0.0,H7C8NO
O=S1(=O)c2c(c3c1cccc3)cccc2,5.216120232603862,1.1388795900216793,0.0,H8C12SO2
C([N][C][N]CC)CCN(C)C,4.180393935921165,0.4182734207057366,0.0,H17C8N3
c1cc(c(cn1)CC)c1ccncc1C,5.647483723723417,0.5746493034726883,0.0,H14C13N2
C(F)(F)(F)c1cc(Cl)ccc1,5.719248586655885,0.4998240768742108,0.0,H4C7ClF3
N(CC(F)(F)F)(CC)c1c(C#N)cccc1,4.46751634934626,0.6800475783507864,0.0,H11C11N2F3
c1(cc2c(cc1)C(=O)c1c(C2=O)c(ccc1)C)C(=O)O,5.704460720645875,2.2960737490844623,0.0,H5(C4O)2
c1cc2c(c(c1)C#N)C(=O)c1c(C2=O)c(ccc1)C,5.743541897901741,2.327646475592337,0.0,H9C16NO2
C(C(=O)N)CCC,6.2831570360081965,-0.7096350660780444,0.0,H11C5NO
O(CC)c1ccc(cc1)CO,4.51197291507342,-0.4251436097933037,0.0,H12C9O2
Cc1nc2c([nH]1)cccc2,4.669354155064502,-0.260781917854183,0.0,H4C4N
c1(cc2c(cc1)C(=O)c1c(C2=O)c(ccc1)O)O,5.2542217184105535,2.060771976704564,0.0,H4C7O2
B(OC)(OC)OC,6.506225947104758,-0.7180756999317963,0.0,BH9(CO)3
c1cc2c(cc1C(=O)O)C(=O)c1c(C2=O)c(ccc1)C,5.696811940780753,2.27377253155064,0.0,H5(C4O)2
c1(c(c2c(cc1)nccn2)C)c1ccccc1,4.848023791282321,1.2264719979153598,0.0,H12C15N2
[Si](C=C)(OC)(OC)OC,5.806803355758893,0.0553829552205571,0.0,SiH12C5O3
N(C(=S)S)(CC)CC,4.536356331378192,0.6683558589662426,0.0,H11C5S2N
c1(cc2c(cc1)C(=O)c1c(C2=O)c(ccc1)C(Cl)(Cl)Cl)C(Cl)(Cl)Cl,5.9792496450914765,2.4513128327467717,0.0,H3C8Cl3O
C(CC(=O)O)CCCS,5.318946424894966,-0.5769993524394521,0.0,H12C6SO2
[C](C#N)(C#N)c1ccc(cc1)[C](C#N)C#N,5.590356849226373,3.493768153629935,0.0,HC3N
C[C@@H]1CO1,6.304793667197009,-1.0710628462124077,0.0,H6C3O
[C@H](C(=O)O)(N)C1=CCC=CC1,4.821012239660922,0.0672801749675273,0.0,H11C8NO2
C[C@@H]1CCC(=CC1)C,4.7162004218022044,-0.8761473063372249,0.0,H7C4
c1(cc2c(cc1)C(=O)c1c(C2=O)c(ccc1)N(C)C)C,4.148620253346598,1.9365749295335264,0.0,H15C17NO2
Fc1cc2c(cc1)n1c(c3c2C=C[CH][CH]3)nnn1,0.858948016078648,5.369760867875447,0.0,H7C13N4F
C(=O)(CS)O,5.578394613310229,1.161055455596943,0.0,H4C2SO2
O=c1ccc(=O)[nH][nH]1,4.997282384210484,1.593406328107085,0.0,H2C2NO
c1(cc2c(cc1)ncc(n2)C#C)C#C,5.338721625994003,1.6773310768381635,0.0,H3C6N
Clc1c(Cl)c(Cl)c(cc1Cl)Cl,5.564062687635305,1.5865549833048136,0.0,HC6Cl5
[C@H](C)(O)c1ccc(cc1)C#N,5.657659480584334,0.7766709438543331,0.0,H9C9NO
S(=O)(=O)(c1ccc(cc1)F)F,6.289500064010644,2.1172548094524246,0.0,H4C6S(OF)2
C(=O)c1cc(Cl)c(cc1)Cl,5.707082983740838,1.413965809713409,0.0,H4C7Cl2O
c1(cc2c(cc1)C(=O)c1c(C2=O)c(ccc1)C#C)C,5.42017474296299,2.1970865878043697,0.0,H10C17O2
C(COCC)OCC,5.199650839125388,-1.1078990053887536,0.0,H7C3O
Cc1cnccn1,5.45133895312174,0.7164095655549318,0.0,H6C5N2
S(CCC#N)c1sc(cc1)c1sc(cc1)SC,3.6918401596063632,1.04577334758651,0.0,H11C12S4N
C(CCCCCCC)c1ccsc1,4.805352218861662,-0.4280045874787901,0.0,H20C12S
c1(c(c2ccccc2)nc([nH]1)c1ccccc1)c1ccccc1,3.957850931079156,0.4655827381189739,0.0,H16C21N2
ON1CCCCC1,4.037859703164576,-0.929860610693504,0.0,H11C5NO
c1(cccs1)c1cccs1,4.110949760486255,0.62869804528018,0.0,H3C4S
c1(cc2c(cc1)C(=O)c1c(C2=O)c(ccc1)C)N(=O)=O,5.751204321547993,2.5916602416924435,0.0,H9C15NO4
C(=C)(CCl)C,5.6152793012712205,2.3217407426905994,0.0,H7C4Cl
O=C1C(C(=O)NC(=O)N1)C1C(=O)NC(=O)NC1=O,6.178773658671707,2.17670179728666,0.0,H3C4N2O3
[C@H](O)(c1ccc(cc1)C)c1ccccc1,4.846569310162158,-0.1213890706552773,0.0,H14C14O
c1cc2c(cc1C)C(=O)c1c(C2=O)c(ccc1)O,5.161072726886777,2.261377626471221,0.0,H10(C5O)3
c12c(c3c(c4c1cccc4)cccc3)csc2,4.335231798615132,0.5171729449990381,0.0,H10C16S
Oc1c(O)ccc(c1)C,4.305728552275104,-0.4116369183215282,0.0,H8C7O2
N(C(C)C)c1nc(NCC)nc(n1)Cl,5.246450794814882,1.01273772891509,0.0,H14C8N5Cl
C(OCC)(OCC)OCC,5.930729619732665,-1.0276343075205658,0.0,H16C7O3
c1c(c2c(cc1)ncc(n2)C=C)C,4.953901394688364,1.2670579293277116,0.0,H10C11N2
C(=O)N1Cc2c(CC1)cccc2,5.188792669741451,-0.3764450886468693,0.0,H11C10NO
C[C@]1(CO1)c1ccccc1,5.186737040170192,-0.3560317642699373,0.0,H10C9O
O=C1c2c(C(=O)N1O)c(F)c(c(c2F)F)F,5.822677753285097,2.2472973435156747,0.0,HC8NO3F4
Cc1cc2c(cc1)nn[nH]2,5.168724802045835,0.5182332665041032,0.0,H7C7N3
C(Cl)[C@@H]1OC(=O)NC1,6.003851674924226,1.704624503022933,0.0,H6C4NClO2
S(C=C)([O])([O])O,6.829703270058962,1.0988342943870522,0.0,H4C2SO3
c1(SSc2ccncc2)ccncc1,4.94227701259806,2.1474425010033884,0.0,H4C5SN
O=C1CC(=O)CC1,5.568968021225009,0.5949314091099951,0.0,H6C5O2
[C@H]([C@@H](CC)C)(C(=O)O)F,6.6598451942314565,1.1742287668017526,0.0,H11C6O2F
S=c1[nH]c(=S)[nH]cc1,4.969127872840181,1.4684217317822914,0.0,H2C2SN
C(#Cc1ccccc1)c1ccccc1,4.513849937285704,0.6604520866709209,0.0,H5C7
C(OC(=O)C)c1ccccc1,5.3005585472234085,1.371779484302897,0.0,H10C9O2
c1(c2nccnc2)nccnc1,5.587283002323238,1.3397390267615266,0.0,H3(C2N)2
Nc1ccccn1,4.432965606272409,-0.1038675435760523,0.0,H6C5N2
n1cncnc1,6.228175259390445,0.8117442815560936,0.0,HCN
Nc1cc2c(cc1)cccc2,3.824252609290488,0.2033936667390663,0.0,H9C10N
[C@H](C(=O)C)(C)O,5.557712081271893,0.4234311398737191,0.0,H4C2O
[C@H](CCC(=O)O)(C(=O)O)N,5.180201279381072,0.034310375203495,0.0,H9C5NO4
C(SCC)CO,4.828886623663129,-0.8234116553016064,0.0,H10C4SO
C(Sc1ccccc1)(C(=O)OCC)(C(=O)OCC)F,4.946755622696946,1.7332739513745763,0.0,H15C13SO4F
C(=O)(N1CCCCC1)c1ccccc1,5.058509638738178,0.4851765399704164,0.0,H15C12NO
n1(cncc1)C=C,4.926379009202355,0.0489803043543362,0.0,H6C5N2
S=c1[nH]c2c(s1)cccc2,4.553519155274989,0.7500336603276083,0.0,H5C7S2N
C(CCC)CC=C,5.458378554452429,-0.9237473637816946,0.0,H2C
C(=O)(N(C)C)N,5.038088436667385,-0.7656416370195074,0.0,H8C3N2O
c12c3c4c5c(c1cccc2c1c(c3ccc4)nc(c(n1)C#N)C#N)nc(c(n5)C#N)C#N,5.241860052041011,2.130907892723917,0.0,H3(C3N)4
OC1c2c(c3c1cccc3)cccc2,4.58078006929245,0.3893975491479069,0.0,H10C13O
Cc1n(C)ccn1,4.558367317733064,-0.9143617003377584,0.0,H8C5N2
N([C]C)(CC)CC,3.261455222509176,-0.2589604123089883,0.0,H13C6N