smiles,IE,EA,charge,formula_pretty
Cn1cc(cc1O)C(Cl)(Cl)Cl,4.188199271034682,2.606634130157181,0.0,H6C6NCl3O
c1c(c(c[nH]1)F)F,4.771258659689556,-0.6918242493378783,0.0,H3C4NF2
C1[C@@H](F)SC[C@@H](F)S1,5.467658048409794,0.5352037633725559,0.0,H3C2SF
C#Cc1c(C)ccn1C,4.103772216488869,0.034668340956705,0.0,H9C8N
CCc1c(cc[nH]1)C(=O)O,4.64397346875703,-0.0612313813311629,0.0,H9C7NO2
C#Cc1ccc(N)[nH]1,3.3844427508789523,-0.2303300391362426,0.0,H3C3N
Cc1ccn(C)c1[C]([NH])O,4.513481775423861,-0.0040997285126649,0.0,H10C7N2O
c1ccc(cc1)C1=COC=C[C@H]1C#N,4.539058198662678,0.484445756488276,0.0,H9C12NO
CNc1cc(N(C)C)n(C)c1,2.798926952771217,-0.9629830717680306,0.0,H15C8N3
CCc1cc[nH]c1c1ccccc1,3.884144326382375,-0.1355798454336763,0.0,H13C12N
CNc1cc(cn1C)c1ccccc1,3.1604846479509434,-0.3141182302573724,0.0,H7C6N
Cc1cn(C)cc1N,3.274561155605261,-0.7151405276857985,0.0,H5C3N
CN(C)c1ccc(F)n1C,3.287526316049116,-0.8642429789710149,0.0,H11C7N2F
CO[C@@H]1C=COC(=C1)OC,4.468871359254626,-0.7069549189222015,0.0,H10C7O3
CN(C)[C@@H]1C=COC=C1C(=O)O,5.031527118944359,0.5935974009495113,0.0,H11C8NO3
Cc1cc(cn1C)c1ccccc1,3.8285727924372623,-0.2873755869735759,0.0,H13C12N
C=Cc1cc[nH]c1,4.084556998458174,-0.3434815937565871,0.0,H7C6N
CCc1ccc(n1C)OC,3.465643980410823,-0.9206133446790772,0.0,H13C8NO
Cc1cc(c[nH]1)N(=O)=O,4.996873829771721,1.6313073449287914,0.0,H6C5(NO)2
c1ccc(cc1)c1cc(N)[nH]c1,3.2939546218072797,-0.308232843310543,0.0,H5C5N
Cc1ccc(NC)[nH]1,2.999591038723884,-0.6660360018071514,0.0,H5C3N
Cn1ccc(c1c1ccccc1)F,4.072494151175851,-0.155518001902601,0.0,H10C11NF
CO[C@@H]1C=COC=C1OC,4.23707902544229,-0.818261343071208,0.0,H10C7O3
CN(C)c1cc(C(=O)N)n(C)c1,3.3469347698443017,0.1491088933886204,0.0,H13C8N3O
Cn1cc(cc1c1ccccc1)O,3.736149111745908,-0.1372032204439164,0.0,H11C11NO
c1ccc(cc1)c1cc[nH]c1C(=O)O,4.800816356009454,0.6432120559198666,0.0,H9C11NO2
C#Cc1cc(c[nH]1)C(=O)O,4.800421763731356,0.3028750928711816,0.0,H5C7NO2
C#Cc1ccc(c2ccccc2)n1C,3.986535699810338,0.2871713569853455,0.0,H11C13N
C=Cc1cn(C)cc1C=C,4.127867388043887,-0.1232244512815667,0.0,H11C9N
Cn1c(ccc1O)N,2.8959115409721563,-0.4951101213468063,0.0,H8C5N2O
CN(C)c1ccn(C)c1C(=O)O,4.141848311353533,0.1758527285288438,0.0,H6C4NO
CNc1ccn(C)c1N(C)C,2.797552479827209,-0.920383387167385,0.0,H15C8N3
CCc1c(cc[nH]1)C#N,4.730039679926994,-0.4675546957972982,0.0,H8C7N2
C=Cc1cc(cn1C)F,4.009065335144987,0.0655640944893094,0.0,H8C7NF
CCc1c[nH]cc1N(C)C,3.210205059965665,-1.0900038986659637,0.0,H7C4N
Cn1cc(c2ccccc2)c(c1)c1ccccc1,4.2124189618858505,-0.1962849098657897,0.0,H15C17N
C=Cc1c(ccn1C)C#N,4.423477421217831,0.5959246518337751,0.0,H4C4N
Cn1cc(c2ccccc2)c(c1)[C]([NH])O,4.322981073809933,0.0257354014698649,0.0,H12C12N2O
Cc1cc(C(=O)N)n(C)c1,4.436898383226071,0.1251112909700169,0.0,H10C7N2O
C#Cc1cc(c[nH]1)c1ccccc1,4.127240845931373,0.13837744741395,0.0,H9C12N
Cc1c(ccn1C)N(=O)=O,4.920613431256788,1.4678278678235075,0.0,H4C3NO
CCc1ccc(N)[nH]1,3.103166066531776,-0.6458429018806782,0.0,H5C3N
Cn1ccc(C#N)c1c1ccccc1,4.509946701009175,0.3762182786555059,0.0,H5C6N
Cn1ccc(c1OC)F,3.766351562755154,-0.8893349416142882,0.0,H8C6NOF
C#CC1=COC(=CC1)C#N,4.771338386326169,0.7785962200119685,0.0,H5C8NO
c1c[nH]c(c1C#N)C(=O)N,5.343951120630299,0.8329539280344762,0.0,H5C6N3O
CCC1=CCC=C(C(=N)O)O1,4.599884999584537,0.4710403129953193,0.0,H11C8NO2
Cn1ccc(c1C(=N)O)N(=O)=O,5.423925606371631,2.225660530011373,0.0,H7C6(NO)3
CNc1ccc([nH]1)N(C)C,2.462424951083085,-0.6385681021496565,0.0,H13C7N3
CNc1cc(c[nH]1)C(=O)O,3.65416615462309,-0.0713215828785904,0.0,H4C3NO
CCc1cc(C(=O)N)[nH]c1,4.595249390678509,0.100298906252283,0.0,H10C7N2O
CCc1ccn(C)c1C#N,4.8096183080593615,0.0068720538434718,0.0,H5C4N
CN(C)c1c(cc[nH]1)O,2.920683631074644,-0.5517436697831726,0.0,H10C6N2O
CNc1c[nH]cc1O,3.2517797278957006,-0.5414360057406156,0.0,H8C5N2O
CC1=COC=C(C1)OC,3.8022036222351754,-0.9162827424046552,0.0,H10C7O2
CN(C)c1ccc([nH]1)N(C)C,2.466150228917832,-0.7721471986173127,0.0,H15C8N3
Cn1ccc(c1C#N)C(=O)O,5.296485865659269,1.009553972514914,0.0,H6C7(NO)2
Cn1cc(cc1O)N,3.079199278284796,-0.4676650624482135,0.0,H8C5N2O
CCc1cn(C)cc1C(=O)O,4.642727317988465,0.0962118951734738,0.0,H11C8NO2
Cn1cc(c(c1)F)C(=O)O,5.068687942588076,0.2264547757746187,0.0,H6C6NO2F
C1C(=COC=C1O)F,4.170752629690105,-0.4405640370754553,0.0,H5C5O2F
C1=COC(=CO1)F,4.132957413452095,0.2044583556704311,0.0,H3C4O2F
C=Cc1cc(F)[nH]c1,4.187426255488026,-0.3873238298387149,0.0,H6C6NF
c1c(c[nH]c1N)N,2.87572945893553,-0.6601503100941044,0.0,H7C4N3
Cn1ccc(c1F)C(=O)O,4.920597014926534,0.5759503014975054,0.0,H6C6NO2F
CCc1cc(NC)[nH]c1,3.08487955942619,-0.6439606333155097,0.0,H12C7N2
CN(C)c1c(ccn1C)F,3.39277286841716,-0.889490367595863,0.0,H11C7N2F
Cn1cc(cc1C(=O)N)OC,4.076979038943682,0.1805445724781749,0.0,H10C7(NO)2
c1c(c[nH]c1F)C(=N)O,4.818321529046079,-0.1881291801222686,0.0,H5C5N2OF
CNc1c(ccn1C)C(=O)O,3.669185338308671,-0.1035708605799299,0.0,H10C7(NO)2
C1C=C(F)OC=C1N(=O)=O,5.356645693796599,2.058582556921101,0.0,H4C5NO3F
C#CC1=COC=C[C@H]1NC,4.441068563177032,0.2793257599074423,0.0,H9C8NO
C#CC1=COC=C[C@H]1C(=N)O,4.878448787874367,0.5193776521369728,0.0,H7C8NO2
C=CC1=CCC=C(C(=N)O)O1,4.609223864886735,0.510869319086487,0.0,H9C8NO2
Cc1cc(c2ccccc2)[nH]c1,3.811305626051399,-0.051735756686321,0.0,H11C11N
C#CC1=C(CC=CO1)C(=N)O,4.755290459088064,1.1533619184552664,0.0,H7C8NO2
C=CC1=COC=C(C1)c1ccccc1,4.037628006393424,0.4037853942096263,0.0,H12C13O
C#CC1=C(CC)OC=CC1,4.270238379709189,0.2197872356951848,0.0,H10C9O
C#Cc1ccc(CC)n1C,4.020560433227365,0.0112038612511242,0.0,H11C9N
C#CC1=CCC(=CO1)NC,3.369176296491424,0.3342478619630129,0.0,H9C8NO
C=CC1=COC(=CC1)C(=N)O,4.409795268018206,0.6569450345392398,0.0,H9C8NO2
C#C[C@@H]1C=COC=C1C(=N)O,5.169280213599995,0.6566236953090994,0.0,H7C8NO2
C#CC1=CCC(=CO1)C(=N)O,4.853200125756848,0.6053070934500284,0.0,H7C8NO2
C=C[C@@H]1C=COC(=C1)C(=N)O,4.9130135230403535,0.6657921819747572,0.0,H9C8NO2
C=CC1=CCC(=CO1)[C]([NH])O,4.601418225007,0.5026711930855527,0.0,H9C8NO2
CC[C@@H]1C=COC=C1C#C,4.418389327818295,0.2870224698996027,0.0,H10C9O
CCC1=COC(=CC1)C#C,4.348186656828693,0.3694143850494584,0.0,H10C9O
C(#N)c1c[nH]cc1C(=O)O,5.538201184346326,0.6447595074529091,0.0,H2C3NO
C#CC1=C(C(=N)O)OC=CC1,4.744141065309668,1.1397858461128636,0.0,H7C8NO2
c1c[nH]c(c1N(=O)=O)F,5.322907248624324,1.5061283042174185,0.0,H3C4N2O2F
C#Cc1cn(C)cc1C(=N)O,4.878964620471015,0.3019007185226656,0.0,H8C8N2O
C=Cc1cn(C)cc1N(C)C,3.2548434848136822,-0.2634614418733689,0.0,H14C9N2
C#CC1=CCC=C(NC)O1,3.580109795707904,0.388397528071073,0.0,H9C8NO
C#CC1=CCC=C(CC)O1,4.366008230226361,0.3785525391900592,0.0,H10C9O
COc1cc(N)[nH]c1,3.065951870482968,-0.6496994325374543,0.0,H8C5N2O
CC1=C(N(C)C)OC=CC1,3.4658761695223803,-0.8310767864826629,0.0,H13C8NO
c1ccc(cc1)c1ccc([nH]1)O,3.556640314547258,-0.1883369825758563,0.0,H9C10NO
CC1=C[C@@H](C=CO1)N(C)C,3.995560902214129,-0.7826470729927677,0.0,H13C8NO
CCC1=COC=C[C@H]1OC,4.704597022411326,-0.7558421292455022,0.0,H6C4O
C=CC1=C(CC=CO1)C#N,4.803585772833321,1.0938943207143894,0.0,H7C8NO
C#C[C@@H]1C=COC=C1C,4.58831554094977,-0.0489738801355996,0.0,H8C8O
C=CC1=COC=C(C1)C(=N)O,4.536884920671218,0.6063241434127122,0.0,H9C8NO2
C=C[C@@H]1C=COC(=C1)C=C,4.42306140541732,0.1818534264381015,0.0,H10C9O
CN(C)[C@@H]1C=COC=C1OC,4.033732397468702,-0.9328173452417104,0.0,H13C8NO2
C#Cc1ccc(N)n1C,3.35464025823203,-0.1076520239297678,0.0,H8C7N2
CC[C@@H]1C=COC(=C1)C#C,4.4958378297757005,0.4279682081920328,0.0,H10C9O
CN(C)c1ccn(C)c1C#N,3.6942192291349785,-0.0600996245015266,0.0,H11C8N3
C#CC1=C[C@H](C)C=CO1,4.519520343413751,0.428246863648019,0.0,H8C8O
C#Cc1cc(C#N)n(C)c1,4.818761694946806,0.1655735629698029,0.0,H3C4N
C#CC1=COC(=CC1)C(=N)O,4.700071807370113,0.6456223532255536,0.0,H7C8NO2
c1ccc(cc1)[C@@H]1C=COC=C1O,4.218640910110116,-0.2661668874501628,0.0,H10C11O2
C=CC1=C[C@@H](C=CO1)C(=N)O,4.753779674894394,0.5899699983070605,0.0,H9C8NO2
C=CC1=C(CC=CO1)C(=N)O,4.558683348024351,1.0697406773375406,0.0,H9C8NO2
CCC1=C[C@@H](C=CO1)OC,4.790032351249101,-0.6728797410381957,0.0,H6C4O
C=CC1=C(C(=N)O)OC=CC1,4.511606628078516,1.0267814071190515,0.0,H9C8NO2
C#CC1=COC=C(CC)C1,4.310041113070474,0.2507078930862918,0.0,H10C9O
C#Cc1c[nH]cc1F,4.696454062049815,-0.6957154119249025,0.0,H4C6NF
C#CC1=C(C)OC=CC1,4.2891693367397234,0.2207712564792019,0.0,H8C8O
C#C[C@@H]1C=COC(=C1)C(=N)O,5.175561447270956,0.7130168175641303,0.0,H7C8NO2
C#Cc1cc[nH]c1N(=O)=O,5.380750258720218,2.0230138659077057,0.0,H2C3NO
CN(C)C1=COC(=CC1)OC,3.386694914671898,-0.9463110351174692,0.0,H13C8NO2
Cn1ccc(c1O)OC,3.3255255496365863,-0.5169537576934089,0.0,H9C6NO2
C=Cc1cc(c2ccccc2)n(C)c1,3.912763863981672,-0.0741099469891195,0.0,H13C13N
C#Cc1c(ccn1C)C#N,4.769593499873372,0.6574404640428839,0.0,H3C4N
CNc1c[nH]cc1OC,3.223082986156078,-0.7407261919055599,0.0,H10C6N2O
C#C[C@@H]1C=COC(=C1)C,4.653619803655237,-0.0937182579513318,0.0,H8C8O
C#CC1=COC(=CC1)CC,4.331798655320744,0.2595388116529649,0.0,H10C9O
C#CC1=C(CC=CO1)NC,3.390740142667346,0.2451949565125688,0.0,H9C8NO
C#CC1=C(NC)OC=CC1,3.536244040824022,0.1119756022268121,0.0,H9C8NO
CN(C)C1=CCC(=CO1)F,3.671019385577529,-0.8765230084722133,0.0,H10C7NOF
COC1=CCC=C(N)O1,3.796100533334175,-0.7171375711463042,0.0,H9C6NO2
c1ccc(cc1)[C@@H]1C=CSC(=C1)N,3.812652227641229,-0.3121266236288647,0.0,H11C11SN
C1=CSC=C(C1)O,3.795025283665018,-0.5648729448061203,0.0,H6C5SO
C1=CSC(=C(C1)N)O,3.2394074436393567,-0.3400314351878477,0.0,H7C5SNO
C#Cc1cc(N)[nH]c1,3.481915010879311,-0.808931269765162,0.0,H3C3N
CO[C@@H]1C=COC=C1N,3.774837057296827,-0.7864334363734087,0.0,H9C6NO2
CN(C)C1=COC(=CC1)F,3.48367743778872,-0.8782331895257811,0.0,H10C7NOF
C#Cc1cc(cn1C)OC,3.850296426138448,0.1237748718827789,0.0,H9C8NO
C#Cc1c(cc[nH]1)N(C)C,3.251359453511759,0.1254205129731418,0.0,H5C4N
C#Cc1cc[nH]c1N(C)C,3.203141719422638,-0.7526820168153789,0.0,H5C4N
CN(C)c1ccn(C)c1[C]([NH])O,3.4726226244452847,0.0273142204583565,0.0,H13C8N3O
CNC1=CCC(=CO1)N,3.4283576549638384,-0.9197408739113596,0.0,H10C6N2O
CN(C)[C@@H]1C=COC(=C1)F,4.138430550655903,-0.5278165883904875,0.0,H10C7NOF
CNC1=COC(=CC1)C(=N)O,3.610426575345264,0.3909073999926478,0.0,H10C7(NO)2
C1=CSC(=C[C@@H]1N)F,4.625719778575876,-0.0214965349281555,0.0,H6C5SNF
C1=CSC=C([C@@H]1O)N,3.641822201998002,-0.34605277564915,0.0,H7C5SNO
C=Cc1c[nH]cc1C=C,4.144378776850862,-0.1296976014004029,0.0,H9C8N
C#Cc1cc[nH]c1CC,4.214622512537607,-0.5619700724695575,0.0,H9C8N
C#Cc1c[nH]cc1c1ccccc1,4.291906709438626,-0.1431634567474247,0.0,H9C12N
c1c(c(c[nH]1)O)F,4.295292869553668,-0.4580096280646102,0.0,H4C4NOF
COC1=C(CC=CO1)N,3.106285541479884,-0.7246156539953517,0.0,H9C6NO2
C1=CSC(=C[C@@H]1O)O,4.540693820517481,-0.1685834308540506,0.0,H6C5SO2
C#Cc1cc(c2ccccc2)[nH]c1,4.10323815770389,0.0200034894511191,0.0,H9C12N
C#Cc1cc(C)n(C)c1,4.163209538842784,-0.3285888605136278,0.0,H9C8N
C#Cc1cc(n(C)c1)OC,3.8616921074350095,-0.2072217074641229,0.0,H9C8NO
Cc1cc(NC)n(C)c1,2.929279552130174,-0.7673811138505697,0.0,H12C7N2
COc1c[nH]cc1F,4.09929984051414,-0.9413901012470888,0.0,H6C5NOF
Cn1cc(cc1F)C(Cl)(Cl)Cl,4.728513325376843,2.592636099057563,0.0,H5C6NCl3F
C1=COC(=C(C1)F)C(Cl)(Cl)Cl,4.812527542418684,2.6754178161296296,0.0,H4C6Cl3OF
C1=CSC(=C[C@@H]1N)O,4.3361488113638185,-0.3748448361424379,0.0,H7C5SNO
c1ccc(cc1)C1=CSC(=CC1)N,3.7124829820801097,0.231086711138778,0.0,H11C11SN
CN(C)C1=COC(=CC1)C(=O)O,3.513371552935132,0.6934262048886013,0.0,H11C8NO3
CCc1c(cc[nH]1)c1ccccc1,3.953829142966788,-0.3916787206620937,0.0,H13C12N
C#Cc1ccn(C)c1C,4.159529884903895,-0.9322235139337862,0.0,H9C8N
Cc1ccc(NC)n1C,2.967004184759935,-0.7359652201597782,0.0,H12C7N2
CNC1=C(CC=CO1)N,3.0218072315688915,-0.8225954988214652,0.0,H10C6N2O
C1C(=CSC=C1O)O,3.620372292612592,-1.0632507953290768,0.0,H6C5SO2
C#Cc1cc(C)cn1C,4.081318756701512,0.0793288941036736,0.0,H9C8N
C#Cc1cc(CC)[nH]c1,4.250508667880785,-0.8204235759607399,0.0,H9C8N
C#Cc1cc(C#C)[nH]c1,4.43589254979779,0.2150837507138931,0.0,H5C8N
C=Cc1ccc[nH]1,3.947816485656949,-0.1617695942108183,0.0,H7C6N
C=Cc1c(cc[nH]1)N(=O)=O,4.727581022548838,1.80770667008037,0.0,H3C3NO
Cc1cc(cn1C)N,3.180679671724284,-0.7501955684532731,0.0,H5C3N
C=CC1=C(C=C)OC=CC1,4.078996858299069,0.6715328234073241,0.0,H10C9O
CCC1=COC=CC1,4.228198356300345,-0.7559999933677317,0.0,H10C7O
Cn1c(ccc1O)N(=O)=O,4.7797637192157705,1.5589435240632157,0.0,H6C5N2O3
C#Cc1ccc(F)n1C,4.252247905252807,0.1258621374068753,0.0,H6C7NF
Cn1ccc(c1N)[C]([NH])O,3.678164575243136,-0.2407489297096616,0.0,H9C6N3O
c1cc([nH]c1C(=O)O)O,4.404335649432687,0.1556153937777709,0.0,H5C5NO3
c1c(c[nH]c1F)N,3.4840273571386207,-0.7648041985197778,0.0,H5C4N2F
c1ccc(cc1)C1=CCC(=CO1)C(=N)O,4.5252343231346455,0.5614938891900239,0.0,H11C12NO2
C1=CSC=C([C@@H]1N)O,4.019013245646056,-0.3721878948548691,0.0,H7C5SNO
Cn1cc(cc1N(=O)=O)F,5.364541074100634,1.8372461238865072,0.0,H5C5N2O2F
Cn1cc(c(c1)N)C(=N)O,4.764591603974258,-0.4880945531080214,0.0,H9C6N3O
Cc1c(cc[nH]1)N(C)C,2.9231694100377354,-0.9417202168719084,0.0,H12C7N2
c1cc([nH]c1N)O,2.9496446552162525,-0.4803146388680033,0.0,H6C4N2O
CN(C)c1ccc([nH]1)OC,2.785837251818157,-0.7939707592217018,0.0,H12C7N2O
c1ccc(cc1)C1=COC=C[C@H]1[C]([NH])O,4.558513445584685,0.5323367743782002,0.0,H11C12NO2
C1=CSC(=C[C@@H]1N)N(=O)=O,4.816946143253153,2.186098513995239,0.0,H6C5S(NO)2
CN(C)c1cc[nH]c1O,3.166656056476859,-0.6696198689536685,0.0,H10C6N2O
C=CC1=CCC=C(C=C)O1,4.248423753418683,0.1458182016900537,0.0,H10C9O
CNC1=C([C]([NH])O)OC=CC1,3.805382494197693,0.3300108481304051,0.0,H10C7(NO)2
c1ccc(cc1)C1=CCC(=CS1)O,3.816589282230416,0.2614501038784511,0.0,H10C11SO
C#Cc1cc(C#N)cn1C,4.748229260081279,0.2680183468997712,0.0,H3C4N
CNc1c(ccn1C)N(C)C,2.768284721996315,-0.7588511450252553,0.0,H15C8N3
C=Cc1cc(C#N)cn1C,4.354462965236598,0.1859063797470299,0.0,H4C4N
CNc1cn(C)cc1N(=O)=O,3.833447714137583,1.4498750022172318,0.0,H9C6N3O2
CCc1cc(cn1C)N,3.188120474099924,-0.9149846695949236,0.0,H12C7N2
CN(C)[C@@H]1C=COC=C1F,4.233999970281365,-0.5934114849991601,0.0,H10C7NOF
CNC1=COC=C(C1)[C]([NH])O,3.640670257045349,0.2796756738149271,0.0,H10C7(NO)2
C1C(=CSC=C1N(=O)=O)N,3.9216924115513394,1.8742556413468263,0.0,H6C5S(NO)2
Cn1c(ccc1N)C(=O)N,3.6298595633612414,-0.1162197866455243,0.0,H9C6N3O
CNc1ccn(C)c1N(=O)=O,4.189589247572803,1.2813231626147172,0.0,H9C6N3O2
Cn1cc(cc1N)C(Cl)(Cl)Cl,3.65422593246476,2.603340435345308,0.0,H7C6N2Cl3
C=Cc1c[nH]cc1O,4.119494741833114,-0.3496062667276418,0.0,H7C6NO
C1=CSC=C([C@@H]1O)O,4.215786430498701,-0.1894716537412022,0.0,H6C5SO2
C1C=C(N(=O)=O)SC=C1N,3.706461015755485,2.097592992745922,0.0,H6C5S(NO)2
CCc1c(cc[nH]1)N(C)C,3.1094548159831903,-0.8728452838189695,0.0,H7C4N
CN(C)c1ccc(n1C)O,2.9594626612884896,-0.4460344340917799,0.0,H12C7N2O
C1=COC(=C[C@@H]1C(Cl)(Cl)Cl)F,5.257230475684628,2.2015426206213307,0.0,H4C6Cl3OF
C#CC1=CCC=C(C)O1,4.377286668551824,0.3835601358729037,0.0,H8C8O
c1ccc(cc1)C1=C(F)OC=CC1,4.265754868838121,0.2496458055589756,0.0,H9C11OF
CN[C@@H]1C=COC(=C1)C(=N)O,4.576176490907164,0.5705590651192325,0.0,H10C7(NO)2
C=CC1=C(NC)OC=CC1,3.323513047389133,-0.0670344603298871,0.0,H11C8NO
CN(C)c1cc[nH]c1C(=O)O,4.212378373385581,0.1988212426673272,0.0,H10C7(NO)2
c1c[nH]c(c1C(=O)O)C(=N)O,5.246069598695248,1.1309417218650195,0.0,H6C6N2O3
C=Cc1ccn(C)c1NC,3.22307716291798,-0.3556040258048596,0.0,H6C4N
Cn1cc(cc1O)C#N,4.33684449488428,-0.4606213358696549,0.0,H6C6N2O
CN[C@@H]1C=COC=C1[C]([NH])O,4.659885464244871,0.4365019539596688,0.0,H10C7(NO)2
C1C(=CSC=C1O)N,3.276900417591241,-0.4959804339181572,0.0,H7C5SNO
C1C=C(N)SC(=C1)N(=O)=O,4.023270921077346,2.12488175761755,0.0,H6C5S(NO)2
Cn1cc(cc1N(=O)=O)N(=O)=O,6.053288903510838,2.212991225338192,0.0,H5C5N3O4
c1ccc(cc1)[C@@H]1C=CSC=C1N,3.4673825890109584,-0.2533013723717885,0.0,H11C11SN
Cc1cc(N(C)C)n(C)c1,2.8311350539421256,-0.9079770851807552,0.0,H7C4N
Cc1cc(cn1C)NC,2.912364308290853,-1.048106079064746,0.0,H12C7N2
C=Cc1ccn(C)c1N(=O)=O,4.886422038998353,1.8039287395055,0.0,H8C7(NO)2
CN(C)C1=C(CC=CO1)F,3.539596347259794,-0.7006089847458497,0.0,H10C7NOF
CN(C)C1=CCC=C(F)O1,3.6885363629113272,-0.7686532977480964,0.0,H10C7NOF
C1=CSC(=C(C1)N)N(=O)=O,4.237783130885509,1.551285383485811,0.0,H6C5S(NO)2
C1C=C(N)SC=C1F,3.869117400199321,-0.5678097442927537,0.0,H6C5SNF
C1=CSC=C[C@@H]1O,4.547647161763598,-0.20474949609561,0.0,H6C5SO
C=Cc1ccc(C=C)[nH]1,3.6780999454837,0.2247669107797265,0.0,H9C8N
CCc1ccc(C#N)[nH]1,4.72824134215225,-0.0678693344747443,0.0,H8C7N2
c1ccc(cc1)c1c(cc[nH]1)C(=O)O,4.504256776157126,0.6158561289463251,0.0,H9C11NO2
c1c(c(c[nH]1)O)N,3.4038255747087534,-0.5019812189042567,0.0,H6C4N2O
CCc1c(ccn1C)N,3.174709420632644,-0.7142202305170939,0.0,H12C7N2
C1C=C(O)SC(=C1)O,4.063824642371037,-0.534345208913146,0.0,H6C5SO2
C1=CSC(=C(C1)N(=O)=O)N,4.670858963641512,1.518281259277137,0.0,H6C5S(NO)2
CNc1cc(NC)n(C)c1,2.622685450661811,-0.7349244228193128,0.0,H13C7N3
C#C[C@H]1C=CC=C[C@@H]1C(=N)O,5.220719545489919,0.4982574318542903,0.0,H9C9NO
c1cc(cc(c1)N(=O)=O)N,4.517883476246061,1.8702188940056657,0.0,H3C3NO
c1cc(ccc1C#N)N(=O)=O,6.680697038043581,2.310633533810324,0.0,H4C7(NO)2
c1ccc(cc1)[C@H]1C=CC=C[C@@H]1C(Cl)(Cl)Cl,4.718915745057165,2.2214712286819123,0.0,H11C13Cl3
C=Cc1cccc(c1)N(C)C,3.953511121027623,0.2561026905237669,0.0,H13C10N
c1ccc(cc1)c1ccc(cc1)N(=O)=O,5.381121530941163,1.9148725455794195,0.0,H9C12NO2
c1cc(ccc1N)N(=O)=O,4.7393032220057645,1.6245156437467814,0.0,H3C3NO
c1cc(cc(c1)N(=O)=O)C(=O)O,6.346766139971441,2.0710658576696006,0.0,H5C7NO4
c1cc(cc(c1)N(=O)=O)C(Cl)(Cl)Cl,6.50958591132221,2.3383648957838887,0.0,H4C7NCl3O2
c1cc(ccc1C(=O)N)F,5.467844973121464,0.6209951229226136,0.0,H6C7NOF
c1ccc(cc1)[C@H]1C=CC=C[C@@H]1C(=N)O,4.793724066222785,0.7289756401783962,0.0,H13C13NO
Cc1ccc(cc1)N(=O)=O,6.02391726639471,1.9772806672222945,0.0,H7C7NO2
c1cc(cc(c1)N(=O)=O)C(=N)O,6.074323276706855,2.18965749633353,0.0,H6C7N2O3
c1cc(ccc1C(Cl)(Cl)Cl)N(=O)=O,6.48723661716358,2.5935144117844176,0.0,H4C7NCl3O2
c1cc(cc(c1)O)[C]([NH])O,5.166105294316003,0.5756201152122231,0.0,H7C7NO2
c1cc(ccc1C(=O)N)N(=O)=O,6.129795840087899,2.124224139200669,0.0,H6C7N2O3
C[C@H]1C=CC=C[C@@H]1c1ccccc1,4.385902326026189,0.1543030785320298,0.0,H14C13
c1cc(ccc1C(=O)O)N(=O)=O,6.625771948494366,2.236848099951749,0.0,H5C7NO4
c1ccc(cc1)[C@H]1C=CC=C[C@@H]1N(=O)=O,4.889831355999922,1.511272893299611,0.0,H11C12NO2
COc1ccc(cc1)F,4.660457276103989,-0.2897571540728676,0.0,H7C7OF
CNc1cccc(c1)N(=O)=O,4.497969833093157,1.8227360121432867,0.0,H8C7(NO)2
COc1cccc(c1)OC,4.514802325127311,-1.1093089450827391,0.0,H5C4O
CNc1cccc(c1)NC,3.673683324500962,-0.9563440243640796,0.0,H6C4N
c1cc(cc(c1)C(Cl)(Cl)Cl)C(Cl)(Cl)Cl,6.156279083859408,2.4484198432706763,0.0,H2C4Cl3
c1cc(ccc1F)N(=O)=O,6.298702115358173,1.9627869156480304,0.0,H4C6NO2F
c1cc(ccc1C(=O)O)O,5.3698298701125164,0.4440574712949456,0.0,H6C7O3
CN(C)c1cccc(c1)N,3.71494698716524,-0.9296809568862954,0.0,H6C4N
C#Cc1ccc(cc1)N(=O)=O,5.8528401453892,2.076147115794447,0.0,H5C8NO2
C1=C[C@@H]([C@H](C=C1)N(=O)=O)F,5.4342782260479,1.5675914044892123,0.0,H6C6NO2F
Cc1ccc(cc1)F,5.308804132256773,-0.5293413075345597,0.0,H7C7F
CCc1cccc(c1)N(=O)=O,6.027907823826899,1.868349376610786,0.0,H9C8NO2
C=Cc1ccc(C)cc1,4.746897831124079,0.038478517375188,0.0,H10C9
C=Cc1ccc(cc1)N(=O)=O,5.511292494833105,1.9486779131835648,0.0,H7C8NO2
CNc1cccc(c1)OC,3.97702034816175,-1.1659707386956142,0.0,H11C8NO
CN(C)c1cccc(c1)[C]([NH])O,4.2177720460837005,0.2748840128802841,0.0,H12C9N2O
CN(C)c1cccc(c1)O,3.927202315849718,-1.1887081665940058,0.0,H11C8NO
CO[C@H]1C=CC=C[C@@H]1N(=O)=O,5.438752996818584,1.430028231113829,0.0,H9C7NO3
CO[C@@H]1CCCC[C@@H]1C(=O)O,6.090104647173211,-0.8983597683203697,0.0,H14C8O3
C1C[C@H](CC[C@@H]1C(=O)O)N(=O)=O,6.74833558873579,1.41770390910242,0.0,H11C7NO4
CO[C@H]1C=CC=C[C@@H]1F,5.291093928835471,1.0812532176383685,0.0,H9C7OF
C1CCC(CC1)(C#N)N,5.517765963606143,-0.5803466895853489,0.0,H12C7N2
C1CCC(CC1)(C#N)C(=O)O,6.645772090652462,0.5913810365123937,0.0,H11C8NO2
C1CCC(CC1)(C(=N)O)N,5.426109019952127,-0.8399284237842948,0.0,H14C7N2O
C1C[C@H](CC[C@@H]1N)N(=O)=O,5.071193618661345,1.416942705982001,0.0,H6C3NO
C1CCC(CC1)C(=O)O,6.262304011606465,-0.4896194120141444,0.0,H12C7O2
CN(C)[C@@H]1CC[C@H](CC1)N(=O)=O,4.2032137183447045,1.401259198351545,0.0,H8C4NO
C=C[C@@H]1C=CC=C1N(=O)=O,5.59824432062087,1.9828777479138808,0.0,H7C7NO2