smiles,IE,EA,charge,formula_pretty
CCC1(C)CCCC1,6.051429897451817,-1.321756195666603,0.0,H2C
C=C[C@H](CNC)NC.c1ccc(cc1)C=C,3.319939534170408,0.3221133997627476,0.0,H11C7N
CC[C@@H]1CCCC[C@@H]1C,5.6166893543646434,-0.987739414644602,0.0,H2C
C[C@@H]1CC[C@H](CC1)N(=O)=O,6.742395895769368,1.3982443809742109,0.0,H13C7NO2
C[C@@H]1CCC[C@@H]1C,5.731885629511998,-0.9416049650557397,0.0,H2C
C[NH2][C]1[CH]N(C)CC[NH]1C.CNC.[H].[H],0.6060611807602982,-0.531034282827386,0.0,H26C9N4
C1CCC(C1)(C(=N)O)N(=O)=O,5.931276685556076,2.1503090624697507,0.0,H10C6N2O3
C#CC1CCCC1,6.02679937077537,-0.7475395210807618,0.0,H10C7
C=C[C@@H]1CC[C@H](CC1)N(=O)=O,5.587301299257524,1.555795860840226,0.0,H13C8NO2
CC[C@@H]1CC[C@H](CC1)C#N,6.251086099000167,-0.837580211984823,0.0,H15C9N
C1C[C@H](C[C@@H]1C#N)C#N,7.60421469768662,-0.4895661266804381,0.0,H8C7N2
C1C[C@H](C[C@@H]1C(Cl)(Cl)Cl)O,6.000872670579701,2.341836314300599,0.0,H9C6Cl3O
CC[C@@H]1CCC[C@@H](C1)O,5.6261396584537575,-0.974973517721446,0.0,H16C8O
C#C[C@@H]1CC[C@@H](C=C)CC1,5.562900995569725,-1.050860102570732,0.0,H7C5
C[C@@H]1CC[C@H](CC1)O,5.6476362081572,-1.0186263489671543,0.0,H14C7O
C#C[C@H](CNC)NC.C(#N)C=C,4.100854100337164,0.8355190989292169,0.0,H5C3N
c1ccc(cc1)[C@H]1C=CC=C1O,3.952990909892469,-0.1866244286888103,0.0,H10C11O
CN[C@H]1C=CC=C1N(=O)=O,4.517569504883431,2.1300262520522666,0.0,H4C3NO
C1C[C@H](CC[C@@H]1C#N)O,5.91109652464147,-0.7922965671299607,0.0,H11C7NO
[CH][CH][C@@H]1CN(C)C[C@@H]([NH]1C)OC,2.2727446133591003,-0.2095628796927484,0.0,H18C9N2O
C=C[C@H](CNC)NC.C(#N)C=C,3.744652944036352,0.7658809553118773,0.0,H17(C3N)3
C#CC(=C(Cl)Cl)C[NH](C)CCNC.[Cl],4.102823263006576,1.7499867833408644,0.0,H15C9N2Cl3
C=C[C@H](CNC)NC.C=CC(=N)O,4.045393117639469,0.6468538343357069,0.0,H19C9N3O
C[NH](CCNC)[CH][CH].N.N,2.8558371999039083,-0.731887724900298,0.0,H10C3N2
CN[C@@H]1C[NH](C)C[C@H](N(C)C)N1C.[H].[H].[H],2.524933433143451,-0.752605808613589,0.0,H26C9N4
c1c(C(Br)(Br)Br)ncc(C(Cl)(Cl)Cl)n1,6.047273650264833,2.989242089528125,0.0,H2C6Br3N2Cl3
C[C@H]1C=CC=C1O,3.876930319127132,-0.285079732584927,0.0,H8C6O
C[C@H]1CCCC[C@H]1F,6.169150477942457,-0.880397332652501,0.0,H13C7F
C1C[C@H](C[C@H](C1)[NH3])C(=O)[O],3.837335284818983,-0.1189508871197175,0.0,H13C7NO2
C=C[C@@H]1CCC[C@@H](C1)N(=O)=O,5.949602851019881,1.3948877777162123,0.0,H13C8NO2
C[C@H]1CCCC[C@H]1C(=N)O,5.594153014145922,-0.683700970972859,0.0,H15C8NO
C1C[C@H](CC[C@@H]1F)O,5.871485324048626,-0.7661848497158643,0.0,H11C6OF
C#C[C@H](CNC)NC.C(#N)C=C,4.07428529697936,0.8688120284401522,0.0,H5C3N
CCC(=C)C#N.CNCCNC,3.915526175912965,0.648365434871812,0.0,H19(C3N)3
C=CC=C.CNC[C@@H](NC)OC,4.155346292458125,0.2176040908594587,0.0,H20C9N2O
CN.CN.CNCC[NH](C)[C][CH2],3.2243063882047864,-0.786236417791224,0.0,H6C2N
CO[C@H]1C=CC=C1N,3.4048405321151223,1.7106341779632204,0.0,H9C6NO
COC1=CC=C[C@@H]1O,3.893489730585861,0.3844505631001085,0.0,H4C3O
C1=C[C@H](C(=C1)N(=O)=O)C(=N)O,5.9663884197412695,2.4683516331457214,0.0,H6C6N2O3
C#CC1(CC)CCCCC1,5.725167903475812,-0.8969686409240238,0.0,H8C5
C1CCC(CC1)F,6.404987060140774,-0.8996416206049616,0.0,H11C6F
CC[C@@]1(C)C[NH](C)CC[NH]1C,-0.2316315296924584,-0.1197670708101212,0.0,H22C9N2
CNC[C@H](F)NC.c1ccc(cc1)C=C,3.449892488367914,0.3510828811973625,0.0,H19C12N2F
C[NH](CCNC)CC(=C(Cl)Cl)c1ccccc1.[Cl],4.408213516538671,1.898910295277892,0.0,H19C13N2Cl3
CO[C@@H]1C=CC=C1O,4.191426233424499,0.0125859239375132,0.0,H4C3O
c1ccc(cc1)[C@@H]1C=CC=C1N(=O)=O,5.405641650145844,1.923078487046587,0.0,H9C11NO2
CO[C@H]1CCC[C@H](C1)C#N,5.635955196453869,-0.7753834675499092,0.0,H13C8NO
C[NH](C)C(=C)C(=O)[O].CNCCNC,3.6489476389229822,0.9634227284273948,0.0,H21C9N3O2
C1=C[C@@H](C(=C1)C(=O)N)N(=O)=O,5.30594564474959,1.6835540318876157,0.0,H6C6N2O3
CC(=C)c1ccccc1.CNCCNC,4.016260414156568,0.3618786385573913,0.0,H22C13N2
CNC[C@@H](C(=N)O)NC.c1ccc(cc1)C=C,4.218325502960942,0.4698969152719656,0.0,H21C13N3O
C1=C[C@H](C(=C1)C(=O)N)N,4.701757955329958,1.0557662140086903,0.0,H8C6N2O
C1=C[C@@H](C(=C1)N)C(=O)O,3.471037398959743,0.2177519820066664,0.0,H7C6NO2
CC[C@@H]1CCC[C@@H](C1)N(=O)=O,6.638701470759406,1.4056627596506588,0.0,H15C8NO2
C1C[C@H](CC[C@@H]1N(=O)=O)N(=O)=O,6.890968084460473,1.5174660579228658,0.0,H5C3NO2
CNCCNC.COC(=C)C(=N)O,3.688287027723709,0.6902215283713304,0.0,H19C8N3O2
[CH]=[C][C@@H]1[C@H](CC)[NH](C)CC[NH]1C,-1.284476483472099,-0.0458431179053149,0.0,H10C5N
CNC[C@@H](c1ccccc1)NC.C=CC(=N)O,4.184133675318298,0.4915305967457244,0.0,H21C13N3O
CC[C@H](CNC)NC.c1ccc(cc1)C=C,3.805862984646956,0.3106196894528694,0.0,H12C7N
CNC1=CC=C[C@@H]1N(=O)=O,3.5729350980178425,1.677644756065638,0.0,H4C3NO
C#C[C@H]1CCCC[C@H]1F,6.042019112959315,-0.7692251014399516,0.0,H11C8F
C#C[C@H]1CCC[C@@H](C)C1,5.811319297161026,-0.915416136020576,0.0,H14C9
C#C[C@@H]1CCC[C@@H](C1)OC,5.475350817024809,-0.8846897787938359,0.0,H14C9O
C=C[C@H](CNC)NC.C=CC(=N)O,4.078327684109899,0.6403713779214741,0.0,H19C9N3O
CC[C@H](CNC)NC.C=CC(=N)O,3.817047453897976,0.772898376646117,0.0,H21C9N3O
C[NH](CCNC)C[C](C(=N)O)C(=N)O,3.360433129195008,-0.8063739112534676,0.0,H9C4N2O
c1c(C(Br)(Br)Br)nc(cn1)C(Cl)(Cl)Cl,6.182640113338129,2.964549968246138,0.0,H2C6Br3N2Cl3
CN(C)[C@H]1C=CC=C1N(=O)=O,4.221462368706488,2.1238997504766304,0.0,H10C7(NO)2
CNCCNC.c1ccc(cc1)C(=C)C#N,3.919087027673959,1.1408880404938828,0.0,H19C13N3
CC1=CC=C[C@H]1N(=O)=O,5.063375599978462,1.8139586615230656,0.0,H7C6NO2
CO[C@H]1C=CC=C1N(=O)=O,5.38444962186586,2.230034743640863,0.0,H7C6NO3
C[C@H]1CCCC[C@H]1N(=O)=O,5.989539344170771,1.4631433165264751,0.0,H13C7NO2
C1C[C@H](C[C@H](C1)C#N)C#N,6.98536036955702,-0.6719855287050449,0.0,H5C4N
CO[C@H]1CCC[C@H](C1)N(=O)=O,5.774209402346605,1.5896072053124954,0.0,H13C7NO3
C1CCC(CC1)([NH3])[NH3],0.2719566749761726,-0.512255119060137,0.0,H8C3N
C=C[C@H]1CCCC[C@H]1C(Cl)(Cl)Cl,5.388063963045715,2.6614138949094923,0.0,H13(C3Cl)3
CC(=C)C(=N)O.CNCCNC,3.835693573049503,0.6046608938318969,0.0,H19C8N3O
C#CC(=C)OC.CNCCNC,3.950221210070231,0.5289058297617886,0.0,H18C9N2O
CC1(C)C[NH](C)CC[NH]1C,-0.0596711077927465,-0.1016042530503908,0.0,H10C4N
C[C@H]1C=CC=C1C,4.2094015568342,-0.1924167146065882,0.0,H10C7
C#C[C@H](CNC)NC.c1ccc(cc1)C=C,3.38263597757541,0.4230695196289162,0.0,H10C7N
C[C@@H]1C=CC=C1N(=O)=O,5.407876655986547,2.070405070540437,0.0,H7C6NO2
C#C[C@H]1CCCC[C@H]1N(=O)=O,6.443351908923068,1.3955501382057265,0.0,H11C8NO2
C#CC1(C=C)CCCCC1,5.480274640743664,-0.8914540090849186,0.0,H7C5
C1C[C@H](CC[C@@H]1C#N)N(=O)=O,7.126502079073907,1.5084768283300949,0.0,H10C7(NO)2
C[NH](CC=C(Cl)Cl)C[C@@H](NC)OC.[Cl],4.441441334654519,1.542211369292636,0.0,H17C8N2Cl3O
CCC1(CC)C[NH](C)CC[NH]1C,-0.2679846868089952,-0.1974932676606839,0.0,H12C5N
CC[C@H](C=C(Cl)Cl)[NH](C)CCNC.[Cl],4.651777124936052,1.7604078372110965,0.0,H19C9N2Cl3
C[NH2][CH][CH].CNCCNC.N,2.487422722809788,-0.7464508602573914,0.0,H22C7N4
C#CC=C.C[C@H](CNC)NC,3.768177971792829,0.5272143538146339,0.0,H18C9N2
CN(C)c1cncc(Cl)n1,4.448549399815965,0.7101080757325691,0.0,H8C6N3Cl
c1ccc(cc1)c1c(C(=O)O)nccn1,5.29596280299811,1.4492951847692894,0.0,H8C11(NO)2
c1ccc(cc1)c1cncc(N)n1,4.518714905501474,0.8201210775019718,0.0,H9C10N3
CN(C)[C@H]1C=CC=C1F,4.089756655808378,0.289645451382603,0.0,H10C7NF
CN.C[NH]1CC[NH](C)[CH][C@H]1C(=O)[O],2.328359718614229,-0.4222390367453044,0.0,H19C8N3O2
CNC[C@@H](NC)OC.c1ccc(cc1)C=C,3.280420757045795,0.4563781174561883,0.0,H22C13N2O
CC1=CC=C[C@H]1N,4.409502542686459,-0.1178934292978737,0.0,H9C6N
C[C@H](CN(C)C=C)NC.[N]([O])O,3.868908424934125,1.4109576647020732,0.0,H17C7N3O2
[CH][CH][C@@H]1CN(C)[C@@H](C[NH]1C)OC,2.312549224308532,-0.237652910975521,0.0,H18C9N2O
C#CC(=C)C#N.CNCCNC,3.934271671037641,1.3016457724021169,0.0,H5C3N
c1ccc(cc1)C1=CC=C[C@@H]1F,4.271246977819464,1.1847314929269488,0.0,H9C11F
C=C[C@H]1CCCC[C@H]1OC,4.997845379578939,-0.92718039006686,0.0,H16C9O
c1ccc(cc1)[C@@H]1CCC[C@@H](C1)C(Cl)(Cl)Cl,5.429660249917651,2.071371139472467,0.0,H15C13Cl3
C1C[C@H](CC[C@@H]1C(=N)O)O,5.660789559809563,-0.8163924135264096,0.0,H13C7NO2
CNC[C@@H](C#N)NC.C=CC(=N)O,4.097715710753255,0.5796364535177418,0.0,H16C8N4O
C#C[C@H](CNC)NC.C=CC(=N)O,3.984472736770477,0.6943480231690047,0.0,H17C9N3O
C#CC=C.C[C@H](CNC)NC,4.026334438538106,0.6055498407618871,0.0,H18C9N2
CNC[C@@H](F)NC.c1ccc(cc1)C=C,4.368277085480804,0.4476800584685407,0.0,H19C12N2F
C#C[C@H](CNC)NC.c1ccc(cc1)C=C,4.245577205927111,0.4212649477281958,0.0,H10C7N
CO[C@H]1CCC[C@H](C1)F,5.621140837439816,-0.934568294389828,0.0,H13C7OF
C1=C[C@@H](C(=C1)N)C(=N)O,3.331246843775807,-0.3595541799499187,0.0,H8C6N2O
CO[C@H]1CCC[C@H](C1)C(Cl)(Cl)Cl,5.602672740607522,2.4213202876358992,0.0,H13C8Cl3O
C1CC[C@H]([C@H](C1)C#N)C(Cl)(Cl)Cl,6.808935375900182,2.746191336847551,0.0,H10C8NCl3
C[NH]1CCN(C)[C@H]([C]1C(=N)O)OC.[H].[H],2.9006517803696625,-0.4886992172709141,0.0,H19C8N3O2
C#C[C@H](CNC)NC.C=CC(=N)O,4.018682883117071,0.6697896893707367,0.0,H17C9N3O
C#C[C@H](C[NH](C)CC=C(Cl)Cl)NC.[Cl],4.970450803246058,2.164535486875684,0.0,H15C9N2Cl3
C=CC=C.C[C@H](CNC)NC,3.764057523366864,0.4459267119997094,0.0,H20C9N2
CCC(=C)C(=N)O.CNCCNC,3.975055293150581,0.6002734500285443,0.0,H21C9N3O
C1=C[C@@H](C(=C1)N(=O)=O)C(=O)O,5.7068946238247005,2.3118215265945765,0.0,H5C6NO4
C[C@@H]1CCC[C@@H](C1)N(=O)=O,6.664526979967922,1.399423485665102,0.0,H13C7NO2
C1CC[C@H]([C@H](C1)C(=N)O)O,5.466737023530731,-0.4170169163957324,0.0,H13C7NO2
C1C[C@H](CC[C@@H]1N(=O)=O)O,5.995241198497388,1.5816173307517605,0.0,H11C6NO3
CNC[C@@H](NC)O.c1ccc(cc1)C=C,4.073182060399267,0.3204846351705783,0.0,H20C12N2O
CC[C@H](CNC)NC.C=CC(=N)O,3.723030057318829,0.6552698282790517,0.0,H21C9N3O
C#CC(=C)C(=N)O.CNCCNC,3.903116473283808,1.1216847628216784,0.0,H17C9N3O
C#CC(=C)C=C.CNCCNC,4.0116047259740295,0.7388110570405844,0.0,H9C5N
CN[C@@H]1C=CC=C1O,4.025804225389583,-0.3224860428384999,0.0,H9C6NO
C#CC(=C)CC.CNCCNC,4.004165686017222,0.4577272360980715,0.0,H10C5N
C#C[C@@H]1CCC[C@@H](C1)N(=O)=O,6.22218319837666,1.5996903591072624,0.0,H11C8NO2
C#C[C@H]1CCCC[C@H]1O,5.455084371532939,-0.8402795023506768,0.0,H12C8O
C=C[C@H]1CCCC[C@H]1N(=O)=O,5.966101464800522,1.3573465835484968,0.0,H13C8NO2
c1ccc(cc1)[C@@H]1CC[C@H](CC1)C(Cl)(Cl)Cl,5.387560302480415,1.9876271523113247,0.0,H15C13Cl3
[CH][CH][C@H]1[C@@H](C)N(C)CC[NH]1C,2.273810934977155,-0.3037966421510645,0.0,H18C9N2
C[C@@H]1[C@H](c2ccccc2)[NH](C)CC[NH]1C,-0.1294615535283809,5.629015335727308,0.0,H22C13N2
C=CC(=C(Cl)Cl)C[NH](C)CCNC.[Cl],4.15131561167218,1.7578719620883931,0.0,H17C9N2Cl3
C1=C[C@@H](C(=C1)O)C(=N)O,3.892168441024842,-0.2891983170324237,0.0,H7C6NO2
CO[C@@H]1CCCC[C@@H]1N(=O)=O,6.031850478684282,1.330998942279257,0.0,H13C7NO3
CO[C@@H]1CCCC[C@@H]1O,4.944766614764012,-0.5356938132612412,0.0,H14C7O2
CC[C@H]1CCCC[C@H]1N(=O)=O,6.682405542954802,1.296037090807295,0.0,H15C8NO2
C#C[C@@H]1CC[C@@H](CC)CC1,5.827618276627254,-1.0083287694655154,0.0,H8C5
C1C[C@H]2C[C@H]2C1.C(=O)=O.C(=O)=O,4.857450279965269,0.867883105268993,0.0,H5(C2O)2
CC[C@]1(C[NH](C)CC[NH]1C)OC,-0.2748536265029542,-0.1196580239087778,0.0,H22C9N2O
C#CC(=C)C.CNCCNC,4.005198279124306,0.4489043448880694,0.0,H18C9N2
C=C[C@H](C=C(Cl)Cl)[NH](C)CCNC.[Cl],4.644113455005572,2.1795588837499964,0.0,H17C9N2Cl3
CN.CN[C@@H]1C[NH](C)[CH]CN1C.[H].[H],2.365489102221181,-0.6328630336833156,0.0,H6C2N
C(#N)c1cnc(C#N)cn1,6.633146815707368,2.2657286641620886,0.0,HC3N2
CC(C)(C)c1c(C(=O)O)nccn1,5.548613892494904,1.3053281502012395,0.0,H12C9(NO)2
COC1=CC=C[C@@H]1N,3.650496886406109,0.0746735814369459,0.0,H9C6NO
CNCCNC.C(=C\C(=N)O)\C(=N)O,3.946267570148484,1.2613124959658308,0.0,H9C4N2O
CN[C@@H]1C[NH](C)C[C@H](NC)N1C.[H].[H].[H],2.550202179983535,-0.5505543118964851,0.0,H6C2N
CNC1=CC=C[C@@H]1O,3.1942115990328603,0.2366046954244667,0.0,H9C6NO
CC(C)(C)c1c(C(F)(F)F)nccn1,5.708945034251519,1.0199826156545897,0.0,H11C9N2F3
Cc1cnc(cn1)C(C)(C)C,5.240138251723328,0.5183439433672903,0.0,H14C9N2
CC(C)(C)c1c(nccn1)OC,5.088515286138863,0.3869012584287703,0.0,H14C9N2O
CC(C)(C)c1cnc(cn1)N(=O)=O,5.9908537302049805,2.331115448110358,0.0,H11C8N3O2
CC(C)(C)c1cnc(cn1)C(Cl)(Cl)Cl,5.65100528224284,2.795682751465938,0.0,H11C9N2Cl3
CC(C)(C)c1cnc(cn1)F,5.717836081815767,0.8203659881215573,0.0,H11C8N2F
Cc1cccc2c1ON(N(C)C)O2,4.315881405310938,-0.5535217786149587,0.0,H12C9(NO)2
C=Cc1cncc(n1)OC,4.962461358623477,1.0077714091836243,0.0,H8C7N2O
CC(C)(C)c1cnc(cn1)OC,5.027399247253561,0.5522398363278627,0.0,H14C9N2O
CCc1c(C(F)(F)F)nccn1,5.859731734146044,1.075461228601489,0.0,H7C7N2F3
Cc1c(C(C)(C)C)nccn1,5.222467464763758,0.4778022467813572,0.0,H14C9N2
C#Cc1cnc(cn1)C(C)(C)C,5.4256825256958106,0.913376166212038,0.0,H6C5N
C=Cc1cnc(cn1)C(C)(C)C,5.086336620297152,0.8839101341596689,0.0,H7C5N
CC(C)(C)c1cnc(cn1)Cl,5.624755837133852,0.8597402347018943,0.0,H11C8N2Cl
CC(C)(C)c1c(Cl)nccn1,5.650029574536893,0.8291046410500713,0.0,H11C8N2Cl
CC(C)(C)c1c(C(Cl)(Cl)Cl)nccn1,5.63223364787118,2.741572223481489,0.0,H11C9N2Cl3
CN(C)c1ccc2c(c1)ONO2,3.578913822731556,-0.2601906525782396,0.0,H5C4NO
CN(C)[N]OC1=CC=C[C](C1=O)N(=O)=O,4.043500367251545,2.5509697831890663,0.0,H9C8N3O4
CN(C)c1c(ccc2c1ONO2)N(=O)=O,4.291056519681296,1.8014464354397208,0.0,H9C8N3O4
CN(C)c1ccc2c(c1C(F)(F)F)ONO2,3.928053385459498,0.527051632461371,0.0,H9C9N2O2F3
Cc1cc(c2c(c1)ONO2)NC,3.901744513404629,-0.3943535371130564,0.0,H5C4NO
CN(C)c1cccc2c1ONO2,3.917671706452529,-0.2245031675487552,0.0,H5C4NO
CN(C)c1ccc2c(c1)ON(N(=O)=O)O2,4.047825586779799,3.196424717212358,0.0,H9C8N3O4
CN(C)N1Oc2cccc(c2O1)C(Br)(Br)Br,4.497422231617383,2.7854837125574705,0.0,H9C9Br3(NO)2
CN(C)c1cc2c(cc1N(=O)=O)ONO2,4.181391831790824,1.785349301849783,0.0,H9C8N3O4
CC(C)(C)c1c(nccn1)N(=O)=O,5.973781378722924,2.14895964177922,0.0,H11C8N3O2
CN(C)c1ccc2c(c1)ON(C(F)(F)F)O2,3.730234829030087,-0.1646420959172245,0.0,H9C9N2O2F3
C#Cc1c(C(C)(C)C)nccn1,5.4436289639739694,0.9818389059433684,0.0,H6C5N
CN(C)c1ccc2c(c1)ON(C(Cl)(Cl)Cl)O2,3.6701386456057663,2.270944427933137,0.0,H9C9N2Cl3O2
CN(C)c1c(ccc2c1ONO2)C(Cl)(Cl)Cl,4.378972743049962,3.0777130115398905,0.0,H9C9N2Cl3O2
COCCOc1c(C(=O)O)nccn1,5.527414869336644,1.4653961633244763,0.0,H5C4NO2
c1cnc(cn1)C(Cl)(Cl)Cl,6.3612635636542105,2.804371063329745,0.0,H3C5N2Cl3
CC(C)(C)c1cncc(F)n1,5.741210491841775,0.8835644026472438,0.0,H11C8N2F
CC(C)(C)c1cnc(cn1)C(Br)(Br)Br,5.623455010552425,2.9285769596404863,0.0,H11C9Br3N2
c1cnc(c(C(=O)O)n1)Cl,6.077729956241091,1.7151983733107046,0.0,H3C5N2ClO2
CNc1c(nccn1)OCCOC,4.161628497580386,0.2338089298151318,0.0,H13C8N3O2
COCCOc1cncc(C(Cl)(Cl)Cl)n1,5.543879307626048,2.77238947761507,0.0,H9C8N2Cl3O2
c1c[nH]c(=O)c(N)n1,4.229436125962456,0.6228359322227335,0.0,H5C4N3O
C=Cc1cncc(c2ccccc2)n1,4.956110379458186,1.074053194591761,0.0,H5C6N
c1cnc(cn1)C(F)(F)F,6.00711645594456,1.2901146410000366,0.0,H3C5N2F3
CC(C)(C)c1cncc(n1)N(=O)=O,6.023427220655867,2.3581689379148885,0.0,H11C8N3O2
COCCOc1c(N)nccn1,4.345268001890508,0.3398580574626977,0.0,H11C7N3O2
CC(C)(C)c1cncc(Cl)n1,5.649964425044891,0.938122174201999,0.0,H11C8N2Cl
CC(C)(C)c1cnccn1,5.319095875259881,0.5819807632175071,0.0,H6C4N
CCc1c(nccn1)OC,5.1173336682055375,0.4955526052686765,0.0,H10C7N2O
CC(C)(C)c1cnc(cn1)C(F)(F)F,5.71003831418202,1.166265341713006,0.0,H11C9N2F3
CC(=O)c1c(C#N)nccn1,5.963495565417906,1.9434218606580544,0.0,H5C7N3O
CN(C)c1c(ccc2c1ONO2)C(F)(F)F,4.25749765059445,0.3481854783545715,0.0,H9C9N2O2F3
CN(C)c1cc(cc2c1ONO2)N(=O)=O,4.268320124088495,2.032087384848273,0.0,H9C8N3O4
CN(C)c1cc2c(cc1C(Cl)(Cl)Cl)ONO2,4.169998950544686,3.1860872240446043,0.0,H9C9N2Cl3O2
CNc1ccc(c2c1ONO2)N(=O)=O,4.43273061964428,1.7912877918184678,0.0,H7C7N3O4
CC(=O)c1c(C(=O)O)nccn1,5.780250430246815,1.7347046878399852,0.0,H6C7N2O3
CN(C)c1ccc(c2c1ONO2)N(=O)=O,4.294800231940462,1.8807283234324133,0.0,H9C8N3O4
CCc1c(C(=O)O)nccn1,5.654785172038464,1.4038878668976396,0.0,H8C7(NO)2
C#Cc1c(N)nccn1,4.7069170568353,1.0123392644614797,0.0,H5(C2N)3
C=Cc1c(C(=O)O)nccn1,5.523686626751077,1.457327413847088,0.0,H6C7(NO)2
CCc1c(C#N)nccn1,5.944459281282979,1.4292836636883297,0.0,H7C7N3
C=Cc1c(=O)[nH]ccn1,4.662157911403119,1.3776665284236516,0.0,H6C6N2O
CN(C)c1c(C#N)nccn1,4.703565691915719,1.3155469636327326,0.0,H8C7N4
C=Cc1c(NC)nccn1,4.244576183472963,0.9148710535169812,0.0,H9C7N3
CCc1c(NC)nccn1,4.353108956707365,0.3442670526834264,0.0,H11C7N3
CCc1c(nccn1)N(C)C,4.173728643501454,0.502784904015789,0.0,H13C8N3
CCc1c(N)nccn1,4.588292454811016,0.4573407854655671,0.0,H3C2N
C=Cc1c(C#N)nccn1,5.665115435138068,1.3979174770280225,0.0,H5C7N3
C=Cc1c(nccn1)N(C)C,4.095259649344007,0.92531387650306,0.0,H11C8N3
C#Cc1c(NC)nccn1,4.502313173130096,0.9560487944287162,0.0,H7C7N3
c1cnc(cn1)C(Br)(Br)Br,5.850632707262411,2.9408696424448864,0.0,H3C5Br3N2
CN(C)c1c(F)nccn1,4.381639227363484,0.6486929184335168,0.0,H8C6N3F
CN(C)c1c(Cl)nccn1,4.426124569128296,0.7962402146455134,0.0,H8C6N3Cl
c1cnc(c(C(=O)O)n1)F,6.259034819060252,1.7373381402663657,0.0,H3C5N2O2F
C=Cc1c(N)nccn1,4.4250692708479615,0.9809354281311244,0.0,H7(C2N)3
COCCOc1c(C#N)nccn1,5.70787744186382,1.4903462403650338,0.0,H9C8N3O2
CN(C)c1c(C(=O)O)nccn1,4.568853586413388,1.25500255428924,0.0,H9C7N3O2
CCc1c(=O)[nH]ccn1,4.8975828180187815,0.9098288385117486,0.0,H8C6N2O
CNc1cc2c(cc1N(=O)=O)ONO2,4.333168666862184,1.7906655844759372,0.0,H7C7N3O4
CNc1ccc2c(c1N(=O)=O)ONO2,4.065368199958902,1.9255297553514537,0.0,H7C7N3O4
C#Cc1c(C#N)nccn1,6.1166067569571165,1.62936689298258,0.0,H3C7N3
C#Cc1c(nccn1)N(C)C,4.293692361264766,0.9777223024844716,0.0,H9C8N3
C1Cc2cc(c(cc2C(C1)(O)O)O)O,4.327699094353738,-0.3449929249021806,0.0,H6C5O2
CNc1ccc(c2c1ONO2)C(F)(F)F,4.27711943935501,0.1243149743146205,0.0,H7C8N2O2F3
C1=NC(=C([NH])N[CH]1)C#N,4.818578075249752,1.7127092010883644,0.0,H4C5N4
CNc1cc(cc2c1ONO2)C(F)(F)F,4.274858986978506,0.3022455928818091,0.0,H7C8N2O2F3
CN(C)c1cccc2c1ON(C)O2,3.746204972526903,-0.7460021418177347,0.0,H12C9(NO)2
CNc1c(nccn1)OC,4.150265731171748,0.2260091022886627,0.0,H9C6N3O
Cc1c(C(=O)O)nccn1,5.696378275680763,1.4229391662734998,0.0,H3C3NO
CNc1c(ccc2c1ONO2)N(=O)=O,4.377785632813902,1.8913423822137705,0.0,H7C7N3O4
CNc1c(Cl)nccn1,4.634800377925421,0.6707313148159302,0.0,H6C5N3Cl
CNc1c(C(=O)O)nccn1,4.778712421005912,1.351082968328774,0.0,H7C6N3O2
c1c[nH]c(=O)c(C(=O)O)n1,5.347018102098081,1.8767283071461864,0.0,H4C5N2O3
CNc1c(=O)[nH]ccn1,4.090704561645543,0.4983106558971486,0.0,H7C5N3O
C1CCc2c(C1)c(c(c(c2F)O)O)F,4.565244396356865,-0.328652856247936,0.0,H5C5OF
COc1c(N)nccn1,4.334882170425408,0.3284090282519174,0.0,H7C5N3O
c1cnc(c(C(=O)O)n1)N,5.049532883481879,1.3879864865681155,0.0,H5C5N3O2
COc1c(C(=O)O)nccn1,5.605801723214972,1.468634459500754,0.0,H6C6N2O3
Cc1ccc2c(c1)ON(N(C)C)O2,4.307505526392196,-0.3437336092669283,0.0,H12C9(NO)2
c1cnc(c(C#N)n1)N(=O)=O,6.825265049812151,2.8216187704107143,0.0,H2C5(N2O)2
COc1c(=O)[nH]ccn1,4.651930202571384,0.6941311239494099,0.0,H6C5(NO)2
CCc1cnc(cn1)c1ccccc1,4.950567605601099,0.8442319772362681,0.0,H6C6N
CNc1c(F)nccn1,4.622988144763076,0.574461680976674,0.0,H6C5N3F
Cc1c(N)nccn1,4.597101857337838,0.4287091632901139,0.0,H7C5N3
Cc1c(=O)[nH]ccn1,4.919793021641089,0.8850543646891311,0.0,H6C5N2O
c1cnc(c(C(=O)O)n1)N(=O)=O,6.442636382545606,2.602311052168807,0.0,H3C5N3O4
c1ccc(cc1)c1c(N)nccn1,4.4346627476294085,0.778577397897243,0.0,H9C10N3
COc1c(C#N)nccn1,5.743318138692848,1.50061262745985,0.0,H5C6N3O
c1c(C(Cl)(Cl)Cl)nc(cn1)C(F)(F)F,6.355288234911859,2.8481044919768466,0.0,H2C6N2(ClF)3
C#Cc1c2CCCCc2c(c(c1O)O)Cl,4.5106083430815485,0.5030552817675926,0.0,H11C12ClO2
C1CCc2c(C1)c(c(c(c2N)O)O)F,3.760227877560829,-0.3283160745544591,0.0,H12C10NO2F
C1CCc2c(C1)c(c(c(c2N)O)O)Cl,3.9112546526062943,-0.2006137521515483,0.0,H12C10NClO2
Cc1c(ccc2c1ONO2)N(C)C,3.695064798399108,-0.2970625702386313,0.0,H12C9(NO)2
CNc1cc(c2c(c1)ONO2)N(=O)=O,4.017084222473931,2.074807812584913,0.0,H7C7N3O4
C1CCc2c(C1)c(c(c(c2N(=O)=O)O)O)Cl,4.793232015426474,2.174194793440256,0.0,H10C10NClO4
C1CCc2c(C1)cc(c(c2Cl)O)O,4.359523526157863,1.1058698085704235,0.0,H11C10ClO2
c1ccc(cc1)c1c(=O)[nH]ccn1,4.590331493600024,1.2814458396966075,0.0,H8C10N2O
CNc1c(ccc2c1ONO2)C(F)(F)F,4.241530981996766,0.2327177560451674,0.0,H7C8N2O2F3
c1cnc(c(C(=O)O)n1)C(F)(F)F,6.218210262859065,1.7573380720219576,0.0,H3C6N2O2F3
C#Cc1cncc(C(C)(C)C)n1,5.45208187560238,0.9661810103531026,0.0,H6C5N
CC(C)(C)c1c(N)nccn1,4.582329994340034,0.361405435310735,0.0,H13C8N3