smiles,IE,EA,charge,formula_pretty
c1ccc(cc1)[C@H]1CCCC[C@H]1N(=O)=O,5.480164041787793,1.2837624078070804,0.0,H15C12NO2
CC(C)(C)c1cc(c(c(c1)OC)OC)C(C)(C)C,4.080865510286094,-0.916757069475716,0.0,H13C8O
CC(C)(C)c1cc(c(c(c1)OCOC)OC)C(C)(C)C,3.956856455680827,-0.8481284736393717,0.0,H28C17O3
C=CC1(CCCCC1)c1ccccc1,4.919366134892334,-0.4179889832234038,0.0,H9C7
CC(C)(C)c1cc(c(c(c1)OCOC)OCCOC)C(C)(C)C,4.411505166075221,-0.7056995380575244,0.0,H32C19O4
c1ccc(cc1)[C@@H]1CCCC[C@@H]1C#N,5.296733821232555,-0.5463692364341113,0.0,H15C13N
C[NH](C)[C@@H]1CCC[C@@H](C1)[NH](C)C,-1.0361087896111711,0.4237828252422333,0.0,H12C5N
C[NH](C)[C@@H]1CC[C@H](CC1)[NH](C)C,-0.3967437578598036,-0.5413748563172702,0.0,H12C5N
CC(C)(C)c1cc(c(c(c1)OCCOC)OCOC)C(C)(C)C,3.846494859758968,-0.5944684703921665,0.0,H32C19O4
CO[C@@H]1CC[C@H](CC1)C(Cl)(Cl)Cl,5.760376288928091,2.023001590963395,0.0,H13C8Cl3O
CC(C)(C)c1cc(c(c(c1)OCOCCOC)OC)C(C)(C)C,4.048900167048123,-0.9710998792674216,0.0,H32C19O4
C[NH2][C@@H]1CC[C@H](CC1)[NH3],-0.2011919396358279,-0.2323236893374995,0.0,H18C7N2
CC(C)(C)c1cc(c(c(c1)OCCOC)OC)C(C)(C)C,3.854266207855835,-0.749261115923582,0.0,H10C6O
C#C[C@H]1CCCC[C@H]1c1ccccc1,5.234319021091869,-0.7194156973167991,0.0,H8C7
C[NH2][C@@H]1CC[C@H](CC1)[NH2]C,-0.4019579460913518,-0.0980449033580952,0.0,H10C4N
c1ccc(cc1)[C@H]1CCCC[C@H]1C(=N)O,5.277040344082343,-0.1750912972551304,0.0,H17C13NO
CC[C@@H]1CCC[C@@H](C1)c1ccccc1,5.093579536925608,-0.906975608293942,0.0,H10C7
CC(C)(C)c1cc(c(c(c1)OC)OCCOC)C(C)(C)C,4.294477858676691,-0.7089794295519822,0.0,H10C6O
CC(C)(C)c1c(ccc(c1C(C)(C)C)OCOC)OCCOC,3.797164261699072,0.0573790816612018,0.0,H32C19O4
CC(C)(C)c1cc(c(cc1OC)OCOCCOC)C(C)(C)C,3.9638052907263046,-0.9032043254577728,0.0,H32C19O4
C[NH](C)[C@@H]1CC[C@H](CC1)[NH3],-0.2222146003699889,-0.2858415887461887,0.0,H10C4N
C[NH](C)C1(CCCCC1)[NH3],-0.0287122211288077,-0.2813294895953731,0.0,H10C4N
CC(C)(C)c1cc(c(cc1OC)OCOC)C(C)(C)C,4.064377877018705,-0.783388381840632,0.0,H28C17O3
c1c(cc2c(c1C(=O)O)ONO2)C(Br)(Br)Br,4.786190071166493,2.85908134112251,0.0,H4C8Br3NO4
C[NH](C)[C@@H]1CC[C@H](CC1)C(=O)[O],3.848049761768925,-0.2216880083873547,0.0,H17C9NO2
C1CCC(C1)(O)O,5.997515514938277,-0.793805123401762,0.0,H10C5O2
C[C]([N]N1Oc2cccc(c2O1)N(=O)=O)O,4.76021686244494,2.1969446750023054,0.0,H7C8N3O5
C=C[C@@H]1CC[C@H](CC1)C(=N)O,5.745770591874679,-0.5159601176841533,0.0,H15C9NO
CC[C@H]1CCCC[C@H]1c1ccccc1,5.089421789854532,-0.7821921639610081,0.0,H10C7
C1C[C@H](C[C@@H]1O)O,5.802211094072481,-1.0628118282987995,0.0,H10C5O2
C[NH2][C@@H]1CCC[C@@H]1[NH2]C,-0.9020189050610496,-0.5307519783258612,0.0,H18C7N2
c1ccc(cc1)[C@@H]1CCC[C@@H]1C(Cl)(Cl)Cl,5.114131457042822,2.596241030545207,0.0,H13(C4Cl)3
C[NH2][C@@H]1CC[C@H](C1)[NH2]C,-0.5017375926621752,-0.050916609676642,0.0,H18C7N2
CC[C@@H]1CC[C@@H](CC)C1,6.448505840493089,-1.1495402322874724,0.0,H2C
C[C@@H]1CCC[C@@H]1c1ccccc1,5.266550252733941,-0.8589814682422001,0.0,H4C3
C[NH2][C@@H]1CC[C@H](C1)[NH](C)C,-0.4046094423796602,-0.2645313771576183,0.0,H10C4N
Cc1ccc(c(c1)[O])O[N]NC,3.2790192211155955,2.8314954197390763,0.0,H5C4NO
CC[C@@H]1CCC[C@@H]1CC,5.919909831188852,-1.1571709849398757,0.0,H2C
c1ccc(cc1)[C@H]1CCC[C@H]1C#N,5.3343434095746485,-0.5067826267681084,0.0,H13C12N
CC[C@H]1CCC[C@H]1C,5.705610562159199,-0.9012307082779444,0.0,H2C
COc1ccc(c2c1ONO2)N,3.8295813302334873,-0.2778440106434572,0.0,H8C7N2O3
C[NH2][C@@H]1CCC[C@@H]1[NH](C)C,0.1503398955770536,-0.934416427655742,0.0,H10C4N
C#C[C@@H]1CCC[C@@H]1c1ccccc1,5.334008397383149,-0.8128800839098402,0.0,H14C13
C[NH2][C@@H]1CC[C@H](CC1)[NH](C)C,-0.6337044015075661,0.0964609364778881,0.0,H22C9N2
C[C]([N]N1Oc2cccc(c2O1)C(Cl)(Cl)Cl)O,4.589490868647408,2.908946014243702,0.0,H7C9N2(ClO)3
C[NH](C)C1(CCCCC1)C(=O)[O],3.736271971143288,-0.4808898875238809,0.0,H17C9NO2
C#Cc1ccc(c2c1ONO2)N(C)C,3.934614387527836,0.3569326185112005,0.0,H5C5NO
c1ccc(cc1)[C@@H]1CCC[C@@H](C1)c1ccccc1,4.997695259816828,-0.6664854114154877,0.0,H10C9
C[NH](C)[C@@H]1CC[C@H](C1)[NH3],-0.193588806871412,-0.3014345416471768,0.0,H18C7N2
c1ccc(cc1)[C@@H]1CCC[C@@H]1C(=N)O,5.496606039563266,-0.3364524413213074,0.0,H15C12NO
COc1ccc(c2c1ONO2)C(=O)O,4.60673025720971,0.8558356650733914,0.0,H7C8NO5
c1c(cc2c(c1N(=O)=O)ONO2)C(=O)O,5.0663530589095895,2.2432100195052045,0.0,H4C7(NO3)2
CCc1cc(cc2c1ONO2)NC,3.5566165535652545,-0.5550224537786561,0.0,H12C9(NO)2
CN(C)c1cc(cc2c1ONO2)C#N,4.186953308029478,0.6926820524509822,0.0,H9C9N3O2
c1c(cc2c(c1N)ONO2)C(Cl)(Cl)Cl,4.368129616102669,2.766091840932495,0.0,H5C7N2Cl3O2
C#C[C@@H]1CC[C@H](C1)c1ccccc1,5.323812506374088,-0.8686396704437356,0.0,H14C13
C[NH](C)[C@H]1CCC[C@H]1[NH3],0.2282232708217635,-0.8744688646405847,0.0,H18C7N2
CNc1ccc(C#N)c2c1ONO2,4.320007249754417,0.4415494642977138,0.0,H7C8N3O2
CO[C@@H]1CC[C@H](C1)c1ccccc1,4.939544320257118,-0.5886184745653735,0.0,H16C12O
CC1(CCCC1)c1ccccc1,5.351977291280127,-0.9656187610093184,0.0,H4C3
C=C[C@@H]1CCC[C@@H]1c1ccccc1,5.033002264393508,-0.558339477933623,0.0,H16C13
c1ccc(cc1)[C@@H]1CCC[C@@H]1O,5.224619141053699,-0.6370925446084583,0.0,H14C11O
CC[C@@H]1CCC[C@@H]1c1ccccc1,5.066386175163279,-0.6649233854644989,0.0,H18C13
c1c(cc2c(c1N)ONO2)C(Br)(Br)Br,4.347034183965297,2.9305633607378696,0.0,H5C7Br3(NO)2
CNC.C[NH](C)[C]1CCCCC1,1.8597267760083924,-0.7465151253822113,0.0,H12C5N
c1ccc(cc1)[C@@H]1CC[C@H](C1)N(=O)=O,5.277735034383658,1.584381531154213,0.0,H13C11NO2
CNc1c(ccc2c1ONO2)N,3.725463149599455,-0.6708632060603121,0.0,H9C7N3O2
CNc1ccc2c(c1N)ONO2,3.644483676705568,-0.6023121490656194,0.0,H9C7N3O2
c1ccc(cc1)[C@@H]1CC[C@H](C1)C(=N)O,5.392709934650702,-0.7155327824897539,0.0,H15C12NO
C[NH](C)[C@@H]1CC[C@H](C1)C(=O)[O],3.770870336862208,-0.3130454241694678,0.0,H15C8NO2
c1ccc(cc1)C1(CCCC1)N(=O)=O,5.496334486566047,1.590953020489542,0.0,H13C11NO2
COC1(CCCC1)c1ccccc1,5.378440499299904,-0.717147514240787,0.0,H16C12O
c1c(F)ncc(F)n1,6.214517425005033,1.252578275774431,0.0,HC2NF
CCC1(CCCC1)c1ccccc1,5.329235427927051,-1.0113621305903506,0.0,H18C13
CN(C)c1ccc2c(c1N)ONO2,3.6582038986285625,-0.6323204060339775,0.0,H11C8N3O2
c1ccc(cc1)[C@@H]1CC[C@H](C1)F,5.375788741662836,-0.8107072221595444,0.0,H13C11F
CNc1ccc(c2c1ONO2)OC,3.66715013360008,-0.2939215982936729,0.0,H10C8N2O3
C[NH](C)[C@@H]1CC[C@H](C1)[NH](C)C,-0.6732851580058195,0.0378771127849177,0.0,H22C9N2
C[NH](C)C1(CCCC1)[NH3],-0.0069690981912571,2.509796972980985,0.0,H18C7N2
C=C[C@@H]1CC[C@H](C1)c1ccccc1,5.035900241400304,-0.7602114747573068,0.0,H16C13
C#CC1(CCCC1)c1ccccc1,5.40834098689229,-0.6436174728318291,0.0,H14C13
CNc1cc(cc2c1ONO2)N,3.526041869872279,-0.6545926461680209,0.0,H9C7N3O2
C#Cc1cnc(C=C)cn1,5.150210903011248,1.3990990579037317,0.0,H3C4N
CNC1(CCCCC1)NC.[H].[H],3.83252628769842,-0.925593079295504,0.0,H10C4N
c1ccc(cc1)C1(CCCC1)C(=N)O,5.449232606973601,-0.2142665116120041,0.0,H15C12NO
C[C]([N]N1Oc2ccc(cc2O1)C(Cl)(Cl)Cl)O,4.596891657559899,3.301016340542992,0.0,H7C9N2(ClO)3
C[C@]1(C[NH](C)CC[NH]1C)F,-0.3683966524698916,3.312928893915887,0.0,H17C7N2F
CNC1(CCCC1)NC.[H].[H],3.868218142875412,-0.9231085248433372,0.0,H18C7N2
c1ccc(cc1)[C@@H]1CC[C@H](C1)c1ccccc1,4.8894091877060415,-0.6731864786437654,0.0,H18C17
CCC1(CC)CCCC1,5.816492113204367,-0.9833973131684616,0.0,H2C
c1ccc(cc1)[C@@H]1CC[C@H](C1)O,5.204671628436335,-0.8143741712650807,0.0,H14C11O
c1ccc(cc1)[C@@H]1CCC[C@@H]1N(=O)=O,5.319927634745545,1.4943182071561751,0.0,H13C11NO2
CN(C)c1c(ccc2c1ONO2)N,3.710549493525469,-0.1877679626071766,0.0,H11C8N3O2
C=CC1(CCCC1)c1ccccc1,4.945322366460095,-0.4047264458899007,0.0,H16C13
CO[C@H]1CCC[C@H]1c1ccccc1,5.067715639024391,-0.9573216913344368,0.0,H16C12O
C[NH]1C[C@H](N(C)C[C@H]1F)N([O])O,2.37861548195142,-0.1438179748860419,0.0,H14C6N3O2F
C[C]([N]N1Oc2ccc(cc2O1)N(=O)=O)O,4.784591992878267,2.0198178398910387,0.0,H7C8N3O5
C[C@@H]1CC[C@H](C1)c1ccccc1,5.228649049218438,-0.8608235892119409,0.0,H4C3
C#Cc1cnc(C)cn1,5.515681331502128,1.006835887248235,0.0,H6C7N2
C#Cc1c(C(Cl)(Cl)Cl)nccn1,5.957472559619054,2.7714797956083204,0.0,H3C7N2Cl3
C#Cc1cnc(cn1)OCCOC,5.118913147538114,0.8617602581813117,0.0,H10C9(NO)2
C#Cc1cnc(cn1)c1ccccc1,5.003724156882162,1.293085729551967,0.0,H4C6N
C#Cc1cncc(n1)N(=O)=O,6.221604333327923,2.529735153942602,0.0,H3C6N3O2
C#Cc1cnc(cn1)OC,5.101672515414611,0.8611221403440141,0.0,H6C7N2O
c1ccc(cc1)[C@@H]1CC[C@H](C1)C(Cl)(Cl)Cl,5.42196907166508,2.004937225925096,0.0,H13(C4Cl)3
C#Cc1c(C(F)(F)F)nccn1,6.074231649848661,1.3673544125973425,0.0,H3C7N2F3
C#Cc1cnc(cn1)C(F)(F)F,6.066461357547814,1.6384854549265584,0.0,H3C7N2F3
C#Cc1cnc(cn1)C(Br)(Br)Br,5.806988042133161,2.9770507093286143,0.0,H3C7Br3N2
c1ccc(cc1)C1(CCCC1)c1ccccc1,5.052963623360119,-0.604559374560631,0.0,H18C17
C#Cc1cnc(cn1)C(Cl)(Cl)Cl,5.928139621167793,2.866546275393921,0.0,H3C7N2Cl3
C#Cc1cnc(cn1)N(=O)=O,6.269393599688192,2.608126250071655,0.0,H3C6N3O2
C#Cc1c(C(Br)(Br)Br)nccn1,5.790204596641706,2.852612218260765,0.0,H3C7Br3N2
C#Cc1cncc(n1)OC,5.249293793934703,1.056230290557869,0.0,H6C7N2O
c1ccc(cc1)c1cnc(cn1)F,5.113166122314942,1.0243673111050158,0.0,H7C10N2F
c1c(C(F)(F)F)nc(cn1)F,6.467812477339612,1.509363735037914,0.0,H2C5(NF2)2
COc1c(nccn1)N(=O)=O,5.841593539967652,2.2821369381505066,0.0,H5C5(NO)3
COc1cnc(cn1)C(Br)(Br)Br,5.430087001115316,3.125156445684843,0.0,H5C6Br3N2O
CCc1c(C)nccn1,5.299882915772832,0.5398223077023432,0.0,H10C7N2
Cc1cnc(cn1)C(F)(F)F,5.891195449124643,1.1662306880149118,0.0,H5C6N2F3
c1ccc(cc1)c1ccc(c2c1ONO2)N,4.0228636891130005,0.1495717481389875,0.0,H5C6NO
C=Cc1c(C(Cl)(Cl)Cl)nccn1,5.542922528156487,2.765392268900177,0.0,H5C7N2Cl3
c1c(C(Cl)(Cl)Cl)nc(cn1)F,6.310409438310307,2.86589789614809,0.0,H2C5N2Cl3F
COc1cncc(C(Br)(Br)Br)n1,5.460698194272117,2.950908438995248,0.0,H5C6Br3N2O
COCCOc1cncc(n1)OC,4.820357522877748,0.4401270327485691,0.0,H12C8N2O3
CNc1ccc2c(c1)ON(C(F)(F)F)O2,3.788601927657146,-0.2797620349723728,0.0,H7C8N2O2F3
CNc1ccc2c(c1)ON(C(Br)(Br)Br)O2,3.709650519239949,5.664044590952107,0.0,H7C8Br3(NO)2
C=Cc1c(nccn1)OC,4.819572820040412,1.0315394999048295,0.0,H8C7N2O
Cc1cncc(C(F)(F)F)n1,5.906931512131996,1.1885860806956772,0.0,H5C6N2F3
COc1c(C(F)(F)F)nccn1,5.743064199339278,1.131694309829618,0.0,H5C6N2OF3
Cc1ccc2c(c1NC)ONO2,3.957445889627343,-0.6784098180618456,0.0,H5C4NO
C#Cc1cncc(C)n1,5.544309775388319,1.048238764269263,0.0,H6C7N2
c1c(C(F)(F)F)ncc(F)n1,6.530457466743973,1.401285440891661,0.0,H2C5(NF2)2
COc1cncc(F)n1,5.416076207860533,0.7707633469759458,0.0,H5C5N2OF
COc1c(C(Cl)(Cl)Cl)nccn1,5.618049131707812,2.9268025461147773,0.0,H5C6N2Cl3O
Cc1cnc(cn1)OC,5.079196257932926,0.5902751277168137,0.0,H8C6N2O
COCCOc1cnc(cn1)OC,4.660149610595544,0.6151435080224474,0.0,H12C8N2O3
CNc1cccc2c1ONO2,4.005119853194264,-0.3576598866733547,0.0,H8C7(NO)2
CNc1cccc2c1ON(C(Cl)(Cl)Cl)O2,4.110974601762427,4.852556217332312,0.0,H7C8N2Cl3O2
c1cnc(c(C(Cl)(Cl)Cl)n1)N(=O)=O,6.543912187198293,2.503885449493828,0.0,H2C5N3Cl3O2
C#Cc1cnccn1,5.688234735716469,1.1002796977896652,0.0,H2C3N
C=Cc1cnc(CC)cn1,5.105811290708152,0.9745198273718416,0.0,H5C4N
c1c(F)ncc(n1)N(=O)=O,6.769528353209898,2.473802851030632,0.0,H2C4N3O2F
Cc1cc(cc2c1ONO2)NC,3.5553498554851104,-0.3866781200253171,0.0,H5C4NO
COCCOc1c(F)nccn1,5.417447057514073,0.7250785927186372,0.0,H9C7N2O2F
COCCOc1c(nccn1)OC,4.8077386381788525,0.3421122348969221,0.0,H12C8N2O3
CNc1cccc2c1ON(N(=O)=O)O2,4.3700235338670606,3.364862386011373,0.0,H7C7N3O4
c1c(C(Br)(Br)Br)ncc(n1)N(=O)=O,6.186669109703507,3.1085757739725524,0.0,H2C5Br3N3O2
COc1cnc(cn1)F,5.331244212545789,0.9155703126103618,0.0,H5C5N2OF
c1ccc(cc1)c1c(F)nccn1,5.187088799005869,1.1502197220012025,0.0,H7C10N2F
COc1c(C(Br)(Br)Br)nccn1,5.560356061783386,3.0861955863016197,0.0,H5C6Br3N2O
COc1c(c2ccccc2)nccn1,4.758829223368229,0.8841197679372272,0.0,H10C11N2O
COc1cnc(cn1)C(F)(F)F,5.778497230717766,0.9976903125621904,0.0,H5C6N2OF3
Cc1c(C(Cl)(Cl)Cl)nccn1,5.825547533853387,2.7521585457085167,0.0,H5C6N2Cl3
CNc1ccc2c(c1C(F)(F)F)ONO2,3.916629012482736,0.4385695810284233,0.0,H7C8N2O2F3
C#Cc1cncc(C(F)(F)F)n1,6.065023981509148,1.4916712742138771,0.0,H3C7N2F3
COc1cncc(n1)N(=O)=O,5.903485960448597,2.41115259078615,0.0,H5C5(NO)3
C#Cc1cncc(C(Cl)(Cl)Cl)n1,5.917282077645359,2.8169590631019674,0.0,H3C7N2Cl3
c1cnc(c(C(F)(F)F)n1)F,6.513506709330249,1.4623775990672585,0.0,H2C5(NF2)2
COCCOc1cncc(F)n1,5.413116327677562,0.766948068777856,0.0,H9C7N2O2F
c1c(F)nc(cn1)N(=O)=O,6.696946702498826,2.633251647339057,0.0,H2C4N3O2F
COc1cnc(cn1)N(=O)=O,5.959485796574517,2.195077492424025,0.0,H5C5(NO)3
CNc1ccc2c(c1)ON(C(Cl)(Cl)Cl)O2,3.72210212735954,2.2741897636966315,0.0,H7C8N2Cl3O2
COc1cncc(c2ccccc2)n1,4.842576757958886,0.9003722730863957,0.0,H10C11N2O
Cc1cncc(C(Cl)(Cl)Cl)n1,5.800896746653597,2.802118472319853,0.0,H5C6N2Cl3
Cc1c(c2ccccc2)nccn1,5.062952408730416,0.7680237266173209,0.0,H10C11N2
C#Cc1cncc(n1)OCCOC,5.252131715418363,1.052554582268931,0.0,H10C9(NO)2
COc1c(F)nccn1,5.423496793054801,0.7325272382910044,0.0,H5C5N2OF
COCCOc1cnc(cn1)C(F)(F)F,5.7272671256883765,0.9894770543120104,0.0,H9C8N2O2F3
Cc1cncc(F)n1,5.85690634622515,0.9102817828803382,0.0,H5C5N2F
c1c(C(Cl)(Cl)Cl)ncc(F)n1,6.338708975484769,2.8253016080794624,0.0,H2C5N2Cl3F
CNc1ccc2c(c1NC)ONO2,3.5320238409090963,-0.686183160755172,0.0,H11C8N3O2
C#Cc1cncc(c2ccccc2)n1,5.118328565380216,1.130224731830458,0.0,H4C6N
Cc1cnc(cn1)F,5.84066189565201,0.9350759903969448,0.0,H5C5N2F
C=Cc1cc(cc2c1ONO2)N(C)C,3.60442672371355,0.481271189369727,0.0,H6C5NO
CN(C)[N]Oc1cccc(c1[O])N,2.884813916852727,2.2305857551160444,0.0,H11C8N3O2
Cc1cnc(cn1)C(Cl)(Cl)Cl,5.7968872526485935,2.7818883431333234,0.0,H5C6N2Cl3
Cc1cnc(cn1)C(Br)(Br)Br,5.757484727998962,2.928032141493168,0.0,H5C6Br3N2
c1ccc(cc1)c1c(nccn1)N(=O)=O,5.515058479255094,2.3048279505979736,0.0,H7C10N3O2
C#Cc1cncc(C(Br)(Br)Br)n1,5.822504231729544,2.895612983114552,0.0,H3C7Br3N2
CN(C)c1ccc(c2c1ONO2)N,3.3397424881637563,-0.7089282721521157,0.0,H11C8N3O2
C=Cc1cncc(CC)n1,5.193094163667047,0.9980611601891723,0.0,H5C4N
COc1cncc(C(F)(F)F)n1,5.749402106158959,1.1523088351728803,0.0,H5C6N2OF3
Cc1cnc(cn1)c1ccccc1,4.9527187988293,0.8530386531816476,0.0,H10C11N2
Cc1cncc(c2ccccc2)n1,5.022390050542162,0.8861350702423807,0.0,H10C11N2
CN(C)c1cc(c2c(c1)ONO2)N,3.4906915202896927,-0.6940155194992257,0.0,H11C8N3O2
c1ccc(cc1)c1cncc(F)n1,5.197141201222257,1.170022254212745,0.0,H7C10N2F
COc1cnccn1,5.353264028999183,0.6389454306587141,0.0,H6C5N2O
Cc1c(nccn1)N(=O)=O,6.168013360469194,2.289759867198518,0.0,H5C5N3O2
COc1cncc(C(Cl)(Cl)Cl)n1,5.562083383281424,2.783997878462833,0.0,H5C6N2Cl3O
Cc1ccc(c2c1ONO2)NC,3.9180182706382767,-0.4043379761737014,0.0,H5C4NO
Cc1c(nccn1)OC,5.132396763761426,0.4853680917854945,0.0,H8C6N2O
COc1cnc(cn1)c1ccccc1,4.664467910269741,0.694366842564341,0.0,H10C11N2O
C=Cc1cncc(C(Cl)(Cl)Cl)n1,5.482286677675438,2.782603901856055,0.0,H5C7N2Cl3
Cc1cncc(n1)OC,5.149772508569731,0.5492550305130863,0.0,H8C6N2O
c1cnc(c(C(Cl)(Cl)Cl)n1)F,6.374591734843852,2.791840253712144,0.0,H2C5N2Cl3F
COCCOc1cnc(cn1)F,5.35221695399523,0.9121172914034106,0.0,H9C7N2O2F
Cc1cnc(cn1)N(=O)=O,6.151022572388319,2.3632020289456706,0.0,H5C5N3O2
Cc1cncc(n1)N(=O)=O,6.174367512484968,2.403808869581189,0.0,H5C5N3O2
CN[N]Oc1ccc(cc1[O])C(F)(F)F,3.646655417252623,2.9078239882124763,0.0,H7C8N2O2F3
CN[N]Oc1ccc(cc1[O])C(Cl)(Cl)Cl,3.574162432117737,2.9227810899843463,0.0,H7C8N2Cl3O2
c1ccc(cc1)c1cnccn1,5.106252392682654,0.9335954543745176,0.0,H4C5N
c1ccc(cc1)c1c(C(F)(F)F)nccn1,5.4268108593329085,1.0445353792798415,0.0,H7C11N2F3
c1c(C(Cl)(Cl)Cl)nc(cn1)N(=O)=O,6.574871405829617,2.613708066820982,0.0,H2C5N3Cl3O2
c1ccc(cc1)c1cnc(cn1)C(Cl)(Cl)Cl,5.245116212486755,2.793701789932675,0.0,H7C11N2Cl3
c1ccc(cc1)c1cncc(C(Br)(Br)Br)n1,5.197098963655298,2.9334839885355906,0.0,H7C11Br3N2
c1ccc(cc1)c1cnc(cn1)C(F)(F)F,5.34591025591144,1.3887586177530469,0.0,H7C11N2F3
Cc1cc2c(cc1NC)ONO2,3.5433393220897416,-0.5307860986798913,0.0,H5C4NO
c1ccc(cc1)c1cncc(C(Cl)(Cl)Cl)n1,5.2306797025899865,2.758601918403292,0.0,H7C11N2Cl3
c1c(C(Cl)(Cl)Cl)ncc(n1)N(=O)=O,6.614155218101223,2.8851242735705456,0.0,H2C5N3Cl3O2
c1cnc(c(C(F)(F)F)n1)N(=O)=O,6.716794013760227,2.596191903108411,0.0,H2C5N3O2F3
CNc1cc(cc2c1ONO2)N(=O)=O,4.4107144114219405,2.00690941518551,0.0,H7C7N3O4
c1ccc(cc1)c1cnc(cn1)C(Br)(Br)Br,5.202596017008181,2.9458624769409654,0.0,H7C11Br3N2
C=Cc1c(C(C)(C)C)nccn1,5.08720034771577,0.923336925926924,0.0,H7C5N
c1ccc(cc1)c1cncc(n1)N(=O)=O,5.402771544585994,2.413779983232962,0.0,H7C10N3O2
c1ccc(cc1)c1cncc(C(F)(F)F)n1,5.325148361871106,1.2662835015049496,0.0,H7C11N2F3
c1c(C(F)(F)F)ncc(n1)N(=O)=O,6.730526622309844,2.7709581561044616,0.0,H2C5N3O2F3
c1c(C(Br)(Br)Br)nc(cn1)N(=O)=O,6.433648356376216,2.590644320991123,0.0,H2C5Br3N3O2
C#Cc1cnc(CC)cn1,5.486321097312247,1.002653342443955,0.0,H4C4N
CNc1cc2c(cc1C(F)(F)F)ONO2,3.9941830592339103,0.3114380854291085,0.0,H7C8N2O2F3
CNc1cc(cc2c1ONO2)C(Cl)(Cl)Cl,4.190292955726909,2.789955168767483,0.0,H7C8N2Cl3O2
c1c(C(F)(F)F)nc(cn1)N(=O)=O,6.68014255730086,2.6686076841084287,0.0,H2C5N3O2F3
c1ccc(cc1)c1cnc(cn1)N(=O)=O,5.488199333152442,2.420834752186784,0.0,H7C10N3O2
c1cnc(cn1)N(=O)=O,6.307092487626141,2.4553531082743576,0.0,H3C4N3O2
CNc1ccc2c(c1)ONO2,3.6120287217650913,-0.2833554070570243,0.0,H8C7(NO)2
Cc1ccc(c2c1ONO2)N(C)C,3.7865228908536666,-0.2841958578559569,0.0,H12C9(NO)2
CNc1ccc(c2c1ONO2)C(Cl)(Cl)Cl,4.243495301046641,3.00505095935805,0.0,H7C8N2Cl3O2
CNc1cc(c2c(c1)ONO2)C(F)(F)F,3.873210958337586,0.4052298506590888,0.0,H7C8N2O2F3
CN(C)c1ccc2c(c1)ON(C)O2,3.4122577104477387,-0.6454081075047724,0.0,H12C9(NO)2
CC(C)(C)c1c(F)nccn1,5.761150422494756,0.765997760175742,0.0,H11C8N2F
CN(C)c1ccc2c(c1)ON(C(Br)(Br)Br)O2,3.639598014234798,5.545538848260184,0.0,H9C9Br3(NO)2
Cc1cc2c(cc1N(C)C)ONO2,3.667381131037109,-0.2425053864448272,0.0,H12C9(NO)2
CN(C)[N]Oc1ccccc1[O],3.3675550368003315,2.33992477716638,0.0,H5C4NO
C[C]1[CH][C]2[CH][C]([CH]1)CCc1cc(CC2)c(C)cc1C,0.4649536299708416,3.4432358872596525,0.0,H22C19
O([Si](C(C)(C)C)(C)C)c1ccc(cc1)[Si](OC)(C)C,4.559743786537728,-0.7171071841934462,0.0,Si2H28C15O2
c12c(nc[nH]c1=O)[nH]cn2,5.0072101528454365,0.3602678498024034,0.0,H4C5N4O
CC1=CC=C2[CH][C]1CCc1cc(CC2)ccc1C,0.5312779086794763,3.553450138982589,0.0,H10C9
Cn1ccc(=c2ccn(C)c(c2)N(=O)=O)cc1,2.5317331171478146,1.6250751407329518,0.0,H13C12N3O2
C#Cc1cc(C(=O)C)sc1,5.172312535925448,1.2422236258367776,0.0,H6C8SO
O(Cc1ccccc1)c1ccc(cc1)C1=CS[C](S1)C1=[S]C=CS1,3.18474898179702,0.4113015457856819,0.0,H14C19S4O
C(#CC=C)C=C,4.778057426669511,0.7895131523815508,0.0,HC
C=Cc1c(ccs1)OCCOCCOC,4.042707163572777,0.4039469754112361,0.0,H16C11SO3
C(C(=O)N1CCCC1)c1cc(OC)c(cc1)OC,4.170485389405803,-0.7458320652207475,0.0,H19C14NO3
C12=C(C=C([CH]C2=C(c2c1c(cc(c2)N(=O)=O)N(=O)=O)[C](C#N)C#N)N(=O)=O)N(=O)=O,6.456788481782132,3.4687679858703637,0.0,H2C8N3O4
C(CCCCCC)n1c2c(n(c1=N)CCOC)cccc2.Cl,3.831692405723152,-0.5777408055058912,0.0,H28C17N3ClO
O=C1N2[C@@H]3[C@]4(c5c2cccc5)[C@H]2N(CC4)CC4=CCO[C@@H](C1)[C@@H]3[C@H]4C2,4.091469277727446,-0.4402612233556282,0.0,H22C21(NO)2
C(c1cc(C(C)(C)C)ccc1)(C)(C)C,4.98329613019232,-0.8464687180043255,0.0,H11C7
C(=O)(OCC)C1(C(=O)OCC)N(C(=O)[C@@H]1C)c1ccc(cc1)OC,4.273959849387756,0.2768191506234871,0.0,H21C17NO6
C1(=C(C(C(C1(F)F)(F)F)(F)F)c1c(c2c(s1)c1c(s2)c(cs1)C)C)c1c2c(sc1C)cccc2,4.271046492498135,1.5994756885134849,0.0,H7C12S2F3
O(C(=O)CCCCCSC(=O)C)N1C(=O)CCC1=O,5.547249255194037,0.2884435680913157,0.0,H17C12SNO5
C12(N3C[C@H]4CN1C[C@@H](C3)C4)CCCCC2,3.5607333801577625,-0.9452656200068305,0.0,H22C13N2
[Si](n1ccc(=c2ccn(cc2)[Si](C)(C)C)cc1)(C)(C)C,1.8870099298888816,-0.7875016736710676,0.0,SiH13C8N
c1(c(n2c(c1C)cccc2)C(=O)C)c1ccccc1,3.956850088213832,0.6294011357327691,0.0,H15C17NO
[C@@]12(C[C@H](CC1)CC2)[N][N][C@]12C[C@H](CC1)CC2,4.2388593356787165,0.4604161779730931,0.0,H11C7N
[C@]12(C(C)(C)C)C[C@@]3(C[C@](C1)(C[C@](C2)(C3)C)C)C,5.164863999199588,-0.9600971657295304,0.0,H30C17
C1(C(=C(C(C1(F)F)(F)F)c1c(sc(c1)C)C)c1c(sc(c1)c1ccc(cc1)C#N)C)(F)F,4.583128117833985,1.309182517552108,0.0,H15C23S2NF6
c12c(c(c3c(c2C)cccc3)C)ccc2c1cccc2,3.867575850812136,0.8487855247709377,0.0,H4C5
c1(c2ccccc2)nc(cs1)c1ccccc1,4.384806719522748,0.8403519413892355,0.0,H11C15SN
N(C(CC)CC)(C(C)C)C(C)C,3.412292824015458,-0.928959211835172,0.0,H25C11N
C1(=[S]C2=C(S1)CCCC2)C1=[S]C2=C(S1)CCCC2,3.039932225512166,0.2488539542915533,0.0,H8C7S2