smiles,IE,EA,charge,formula_pretty
C(SCl)(c1ccccc1)(c1ccccc1)c1ccccc1,5.06827053900779,2.8790358597630985,0.0,H15C19SCl
C(CCC)C1(CCCC)COc2c(OC1)csc2,4.555818065496714,-0.3908477231001597,0.0,H24C15SO2
C(N=C=O)(c1ccccc1)(c1ccccc1)c1ccccc1,5.046502797931316,2.168735036078578,0.0,H15C20NO
[C@H](CN(=O)=O)(O)c1ccc(cc1)c1cccnc1,4.943900533556734,1.9423159845769988,0.0,H12C13N2O3
[Si](CCCCl)(OC)(OC)OC,5.853894500463502,-0.6965484013693639,0.0,SiH15C6ClO3
C(CC(=O)O)n1cccc1.C(CC(=O)OCCCC)n1cccc1,4.282472617892926,0.0831142996481504,0.0,H13C9NO2
N(C(=O)C)[C@]12C[C@H]3C[C@@H](C2)C[C@@H](C1)C3,5.292095738813805,-0.7530473731807432,0.0,H19C12NO
[Si](N(CC)CC)(C)(C)c1ccc(cc1)OC,3.920195404478,-0.6832634445730945,0.0,SiH23C13NO
O(S(=O)(=O)[O])CC.[N](CC(=O)OCC)(CC)(C)C,5.59684788538434,1.351791424874682,0.0,H23C10SNO6
CC1=Nc2c([C@H](O1)c1ccccc1)cccc2,4.592876903590513,0.2840099928303972,0.0,H13C15NO
C(=O)(c1c2c(c(C(=O)c3ccccc3)ccc2)ccc1)c1ccccc1,4.8246040715799605,1.4054076254047687,0.0,H8C12O
N(CCN(CC)CC)c1c2c3n(c4c(c2=O)C=C[CH][CH]4)cnc3cc1,3.734047590177943,5.521315609073644,0.0,H22C20N4O
P(Oc1ccc(cc1)N(=O)=O)(OC)(OC)[S],5.475981095261522,2.076442501094425,0.0,PH10C8SNO5
O(C[C@@H](CNC(C)C)O)c1ccc(cc1)CCOC,4.25043956457157,-0.5634046783947269,0.0,H25C15NO3
C(Cc1ccc(cc1)N)c1ccc(cc1)N(=O)=O,3.92528810749136,1.9907523430862055,0.0,H7C7NO
C(Cl)c1cc2c(cc1)OCCOCCOCCOCCO2,4.220153307951113,2.231966406312131,0.0,H21C15ClO5
C(C[C@H]1c2c(OC1)cccc2)[C@H]1c2c(OC1)cccc2,4.496180146261031,-0.525872073782375,0.0,H9C9O
C(C)(C)(C)C1=CC(=O)C(=CC1=O)C(C)(C)C,5.893759613196016,2.4803735566798424,0.0,H10C7O
[C@H]1([C@H]2C[C@H]3C[C@@H]1C[C@@H](C2)C3)[C@@H]1[C@H]2C[C@H]3C[C@@H]1C[C@@H](C2)C3,5.308359479536739,-0.8713189265457912,0.0,H3C2
O=C1c2c(C(=O)C=C1[C@@H](CC=C(C)C)O)c(O)ccc2O,4.868374031507846,2.5906373439989694,0.0,H16C16O5
O(C)c1c2c(c(cc1[C@@H]([C@H](C=C(C)C)O)O)OC)C(=O)C=CC2=O,4.671270277316216,2.3650488846156805,0.0,H10(C3O)3
O(C(=O)C)[C@H]1[C@H](OC(=O)C)C=CO[C@@H]1COC(=O)C,5.162301054196723,-0.0180185282319143,0.0,H16C12O7
O(C(=O)C)[C@H]1[C@H](OC(=O)C)[C@@H](COC(=O)C)OC=C1OC(=O)C,4.829240349879546,0.227228659373941,0.0,H18C14O9
Cl[Ca],7.267911614915647,1.6493817898299312,1.0,CaCl
C(C=O)Cl,6.415690519204508,2.2854220896129847,0.0,H3C2ClO
C(=O)(O)[C@@H]1[C@@H](O)[C@H](O)[C@@H]([C@@H](O1)O)O.C(=O)(O)[C@@H]1[C@@H](O)[C@@H](O)[C@H]([C@H](O1)O)O,5.525669854994339,0.544380285247462,0.0,H10C6O7
c1(ncccn1)Cl,6.357944852393848,0.8641301438598021,0.0,H3C4N2Cl
C(=C(C)C)(C(=O)OCC)CCC(=C(C)C)C(=O)OCC,4.902384723850991,0.2186855229570938,0.0,H13(C4O)2
C([C@H]1C(=O)[C@H](C)CCC1)c1ccccc1,4.792413714688882,-0.1045388946753518,0.0,H18C14O
Oc1c2c(c(c3c1cccc3)O)ccc(c2)CC,3.4251335087079497,0.8315901533365833,0.0,H7C8O
C(S(=O)Cc1ccccc1)c1ccccc1,4.904023624685214,0.7893545236198407,0.0,H14C14SO
O(S(C)([O])[O])[C@H]1C[C@H](OS(C)([O])[O])CCC1,6.421833709524071,1.444768522081722,0.0,H8C4SO3
C(C)N1C2(C(=O)NC(=O)C1)CCCCC2,4.363937228948634,0.2812401923234575,0.0,H18C11(NO)2
[Si](Cl)(c1ccccc1)(c1ccccc1)c1ccccc1,5.395444721661624,0.3840598430047977,0.0,SiH15C18Cl
Cc1cc2cc(c1)CSCc1cc(CSC2)ccc1,4.641011313704075,0.9276386892393932,0.0,H18C17S2
C(=N)(c1ccc(cc1)N(C)C)c1ccc(cc1)N(C)C.Cl,3.621142989753571,0.5102373428540887,0.0,H22C17N3Cl
c1(c2ncccn2)ncccn1,5.366297049192871,1.246838311906322,0.0,H3(C2N)2
S(SC1CCCCC1)C1CCCCC1,4.4864971004950345,1.3019570325355745,0.0,H11C6S
C([C@@H]1[C@@H](Cc2cc(OC)c(cc2)O)C(=O)OC1)c1cc(OC)c(cc1)O,4.368263852587552,-0.4961439824968692,0.0,H11C10O3
C(CC[C@H](CO)O)CCCCC,5.790600489624557,-0.5515979637078998,0.0,H11C5O
[N](CCC)(CCC)(CCC)CCC.Cl[O].[O].[O].[O],6.171903704003489,-0.6593820701513322,0.0,H28C12NClO4
[S@](O[Na])([O])c1ccc(cc1)SSc1ccc(cc1)S([O])([O])O.O[Na],4.107522897576564,2.0445887326874077,0.0,NaH5C6S2O3
[Si](CCCNCCN)(OC)(OC)OC,4.157134107591991,-0.6933870181623205,0.0,SiH22C8N2O3
S(OCC(=C)C(=O)OCC)([O])([O])c1ccc(cc1)C,5.894437979391659,0.7359525147709065,0.0,H16C13SO5
C(O)[C@]12[C@H]([C@H]3[C@@H](O1)COC(O3)(C)C)OC(O2)(C)C,5.7733066102679,-0.7822410464927088,0.0,H10(C2O)3
c12[C]3c4c5c(c1cccc2[CH][CH][CH]3)cccc5ccc4,3.715425697324099,1.2175527375889943,0.0,H3C5
[Si](CCCOC[C@@H]1CO1)(OC)(OC)OC,5.565968113097915,-0.7306900838688306,0.0,SiH20C9O5
C(C)(C)(c1ccc(cc1)OC[C@@H]1CO1)c1ccc(cc1)OC[C@@H]1CO1,4.350580542953685,-0.4788057458630645,0.0,H24C21O4
C(=O)(OC)C1=C(C)NC(=C([C@@H]1c1c(N(=O)=O)cccc1)C(=O)OC)C,4.319552289025159,1.7854743109506672,0.0,H18C17(NO3)2
C(CCCCOCCOC)CSC(=O)C,5.576937802901375,0.2947705087259238,0.0,H22C11SO3
CN1C=C[C](C=C1)[C]1C=C(N(C)C=C1N(=O)=O)N(=O)=O,3.0511124851560454,1.760005974055821,0.0,H3C3NO
c1ccc(cc1)n1c2ccc(cc2[nH]s1)C(Cl)(Cl)Cl,3.294796384203073,2.7100058399533737,0.0,H9C13SN2Cl3
Cn1ccc(=c2ccn(CC#N)cc2Cl)cc1,2.1889414886332816,0.2064363429977675,0.0,H12C13N3Cl
c1cn(ccc1=c1ccn(cc1)CC(Cl)(Cl)Cl)CC#N,2.263273005477094,2.2879101869926672,0.0,H12C14(NCl)3
CC(=O)c1cc(N(C)C)sc1,3.7053725114179534,0.714685035943694,0.0,H11C8SNO
CC(=O)c1cscc1C(=O)C,5.067666484379151,0.9975178114415032,0.0,H8C8SO2
C#Cn1c2cccc(c2[nH]s1)OCCOC,3.371950412723527,2.8889428606686125,0.0,H12C11S(NO)2
Cn1ccc(=c2ccn(cc2C(Cl)(Cl)Cl)CCl)cc1,2.3936794564448065,3.3323748318158324,0.0,H12C13(NCl2)2
Cc1cn(C)c(cc1=c1ccn(C)cc1)O,1.7383888888049115,-0.316938682035834,0.0,H16C13N2O
CCc1cscc1C(=O)C,5.066150676966208,0.7334240465912445,0.0,H10C8SO
CC1=C([C](C=CN1C)[C]1C=CN(C)C=C1)O,1.7813205394646503,-0.1329049310210392,0.0,H16C13N2O
c1cc(F)sc1F,4.874762341970927,0.4007120860966098,0.0,H2C4SF2
COCCOCCOc1cc(cs1)O,4.090698332960164,-0.4692581474722828,0.0,H14C9SO4
C=Cc1cncc(Cl)n1,5.398913759485003,1.3144030460367504,0.0,H5C6N2Cl
c1cc2c(cc1C(=O)O)[nH]sn2O,4.0181857365729226,4.160780525545851,0.0,H6C7SN2O3
COc1cc(C(=O)O)sc1,4.699891134668723,1.0523463770819943,0.0,H6C6SO3
CC(C)(C)c1cc(N(C)C)sc1,3.407914049757528,-0.8218673385184956,0.0,H17C10SN
COCCOn1c2c(cccc2[nH]s1)C(=O)O,4.015154173439077,4.239235982045647,0.0,H12C10S(NO2)2
COCCOc1cccc2c1[nH]sn2OC,3.681274167019728,1.7500100626690256,0.0,H14C10SN2O3
Cn1ccc(=c2ccn(C)c(c2)N)cc1,1.677085926761356,-0.3831382101510825,0.0,H5C4N
COCCOCCOc1ccc(C#N)s1,4.71040542835326,0.7130717709493184,0.0,H13C10SNO3
C=Cn1c2cc(ccc2[nH]s1)N,3.194916077272501,2.693858944910608,0.0,H9C8SN3
CCc1cncc(Cl)n1,5.723200422462105,0.9549422435062298,0.0,H7C6N2Cl
c1c[nH]c(=O)c(Cl)n1,5.182155326133943,1.2626840503959105,0.0,H3C4N2ClO
COc1ccc(C(F)(F)F)s1,4.6708781667126456,0.4423390488642327,0.0,H5C6SOF3
COCCOCCOc1ccsc1N,3.4644216911234254,-0.5691326175532594,0.0,H15C9SNO3
c1csc(c1C#N)F,5.442428963711427,1.000349164094223,0.0,H2C5SNF
CCc1cc(C(=O)C)sc1,5.150769283327099,1.0580861395916146,0.0,H10C8SO
Cn1ccc(=c2ccn(cc2)CO)cc1Cl,2.115090010525455,1.250558921701304,0.0,H13C12N2ClO
Cn1ccc(=c2ccn(cc2)CF)cc1,2.1327475890808274,-0.1489387872519727,0.0,H13C12N2F
CC(=O)c1ccsc1OCCOC,4.580981093387527,0.7481052058807109,0.0,H12C9SO3
c1cc(c2c(c1)[nH]sn2N(=O)=O)C(Cl)(Cl)Cl,3.051917773425521,3.973352976181195,0.0,H4C7SN3Cl3O2
COCCOCCOc1ccc(N)s1,3.366490728827193,-0.4860826794487365,0.0,H15C9SNO3
Cn1ccc(=c2ccn(cc2)CC#N)cc1Cl,2.1757041191100144,1.2645248460954464,0.0,H12C13N3Cl
COn1c2ccccc2n(c2ccccc2)s1,3.710403158869304,1.8198696552513869,0.0,H12C13SN2O
Cn1ccc(=c2ccn(C)c(c2)F)cc1,1.9664220842256328,-0.1446038913549272,0.0,H13C12N2F
Cc1ccsc1Cl,4.738989800685522,1.1967988872325803,0.0,H5C5SCl
CCc1ccc(C(=O)C)s1,5.036450289591448,1.029082086087874,0.0,H10C8SO
COCCOn1c2cc(ccc2[nH]s1)C(=O)O,3.974630120717484,0.8199595126330679,0.0,H12C10S(NO2)2
COCCOCCOc1ccsc1C#N,4.936999147006281,0.6735843576658227,0.0,H13C10SNO3
C#Cc1ccsc1C(F)(F)F,5.36537173424731,0.9209349117641978,0.0,H3C7SF3
Cn1ccc(=c2ccn(cc2N(=O)=O)CF)cc1,2.601168481536297,1.5659890601942608,0.0,H12C12N3O2F
C=Cn1c2ccccc2n(C#N)s1,3.872691618196405,3.2757125753756555,0.0,H7C9SN3
c1cc2c(cc1N)[nH]sn2C(F)(F)F,3.7932295445803903,2.5577545063730214,0.0,H6C7S(NF)3
CC(C)(C)c1ccsc1,4.811098841358762,-0.9504108518725842,0.0,H12C8S
CC(=O)c1ccsc1C(F)(F)F,5.733906082926842,1.3818397533228564,0.0,H5C7SOF3
CC(=O)c1cc(cs1)N,4.125030563178006,1.0705545643846563,0.0,H7C6SNO
CC(C)(C)n1c2ccc(cc2[nH]s1)C(=O)O,3.100580843563512,1.749508064343536,0.0,H14C11S(NO)2
CCn1c2ccccc2n(NC)s1,3.241072804821306,1.9127059036232823,0.0,H13C9SN3
CC(=O)c1c(ccs1)C(C)(C)C,5.100009371960914,1.0118145310239923,0.0,H14C10SO
Cc1ccc2c(c1)[nH]sn2OC,3.858239205959399,1.801538230317965,0.0,H10C8SN2O
C=Cc1cnc(cn1)F,5.307192805059094,1.1525301453617431,0.0,H5C6N2F
CC(=O)c1cscc1C(C)(C)C,5.104288958003599,0.7349078670245945,0.0,H14C10SO
c1c[nH]c(=O)c(F)n1,5.235113495538462,1.1167558478533466,0.0,H3C4N2OF
CCn1c2c(cccc2[nH]s1)C(=O)O,3.408557737764204,0.8992708923193278,0.0,H10C9S(NO)2
Cn1ccc(=c2ccn(CF)c(c2)O)cc1,2.0816726569661115,-0.2416110026773821,0.0,H13C12N2OF
CC(=O)c1ccsc1N(C)C,3.858123968465952,0.6118146387540038,0.0,H11C8SNO
C=Cn1c2c(cccc2[nH]s1)C#N,3.613502076701116,0.8760694868302381,0.0,H7C9SN3
C=Cc1c(ccs1)c1ccccc1,4.31659550005279,0.6861619082752441,0.0,H10C12S
Cn1ccc(=c2ccn(C)c(c2F)Cl)cc1,2.130663175308291,2.925103611528902,0.0,H12C12N2ClF
COCCOc1ccsc1Cl,4.415813544482807,1.2799750453501475,0.0,H9C7SClO2
Cn1ccc(=c2ccn(cc2N)CF)cc1,2.017068306429428,-0.1281552683271001,0.0,H14C12N3F
Cn1c2cccc(c2[nH]s1)C(F)(F)F,3.434904390103475,0.3988481716092793,0.0,H7C8SN2F3
CC(=O)c1cc(cs1)NC,3.9538346124587407,1.0550556349786349,0.0,H9C7SNO
Cn1ccc(=c2ccn(C)c(c2)C#N)cc1,2.171951865196752,0.5724076595994121,0.0,H13C13N3
C#Cc1cc(cs1)C(=O)C,5.02986676737928,0.9618103314838664,0.0,H6C8SO
Cn1c2cccc(c2[nH]s1)C(=O)O,3.1365080744923035,2.105337075035641,0.0,H8C8S(NO)2
CC(=O)c1cscc1N(C)C,3.6854525239919895,0.7731252978170233,0.0,H11C8SNO
Cn1ccc(=c2ccn(C)cc2Cl)cc1,1.9736614960253065,-0.0178494720697925,0.0,H13C12N2Cl
c1c(F)ncc(N)n1,4.735478655955012,0.839546435444936,0.0,H4C4N3F
CCn1c2ccccc2n(C#N)s1,3.604704739701993,3.3181040474206385,0.0,H9C9SN3
c1c(csc1F)F,5.059984008659376,0.4616083059823723,0.0,H2C4SF2
c1ccc(cc1)c1ccsc1Cl,4.6565492288515085,1.3203353454096942,0.0,H7C10SCl
CCc1c(ccs1)C#N,5.201879418809403,0.4747990243027744,0.0,H7C7SN
CN(C)c1c(ccs1)OCCOC,3.1974424229680154,-0.3773229496568091,0.0,H15C9SNO2
CN1C=C[C]([C]2C=CN(C)C=C2Cl)C(=C1)Cl,2.0259397998903297,0.1797797611594433,0.0,H6C6NCl
Cn1ccc(=c2ccn(C)c(c2)O)cc1,1.7946324028722302,-0.3474693757983913,0.0,H14C12N2O
Cc1ccsc1C(=O)C,5.178074549182929,0.9639563599936084,0.0,H8C7SO
Cn1ccc(=c2cc(N)n(C)c(c2)N)cc1,1.5764168761066686,-0.6730909313104347,0.0,H4C3N
Cn1ccc(=c2ccn(C)c(c2)Cl)cc1,1.9834474552531904,1.2281419033985004,0.0,H13C12N2Cl
CC(C)(C)c1cscc1N(C)C,3.8655631199922937,-0.6640773753773828,0.0,H17C10SN
C=Cc1c(ccs1)C(=O)O,4.731782179942092,1.2483992521207257,0.0,H6C7SO2
CC(C)(C)c1c(ccs1)N,3.7115521976498713,-0.7334062670619459,0.0,H13C8SN
COn1c2cccc(c2[nH]s1)N(=O)=O,4.0869920254714085,2.071085771470825,0.0,H7C7S(NO)3
CN1C=C[C]([C]2C=CN(C)C=C2F)C(=C1)Cl,2.035686343429552,0.1697568316027173,0.0,H12C12N2ClF
CNc1ccsc1F,3.722160863134923,0.1742608489672421,0.0,H6C5SNF
Cn1ccc(=c2ccn(cc2C#N)CF)cc1,2.423335113731446,0.4709022044749873,0.0,H12C13N3F
Cn1ccc(=c2ccn(cc2)CO)cc1,1.9913072593968535,-0.4146702474703487,0.0,H14C12N2O
CNc1ccsc1OCCOCCOC,3.2691445337273763,-0.3153825555076763,0.0,H17C10SNO3
CC(=O)c1c(ccs1)OCCOC,6.217902462849452,2.409311625215196,0.0,H12C9SO3
CC(=O)c1cc(=c2ccn(C)cc2)ccn1CF,2.486211587654543,0.95532894447897,0.0,H15C14N2OF
COn1c2c(cccc2N(=O)=O)[nH]s1,4.014421052500984,2.1209454132527754,0.0,H7C7S(NO)3
c1c(c(cs1)O)C(Cl)(Cl)Cl,4.876543702566414,3.161272314109374,0.0,H3C5SCl3O
c1c(C(=O)O)ncc(F)n1,6.33594322675126,1.5333755417992507,0.0,H3C5N2O2F
CCn1c2c(cccc2[nH]s1)C#N,3.495195532215439,0.7951150293643878,0.0,H9C9SN3
n1c2c(nc(c1C)C)ccc(c2)C,5.104381732494948,0.9523532762555988,0.0,H12C11N2
COCCOCCOC.[Zn].[B](F)(F)(F)F,7.40752777622547,1.6891373126069085,1.0,ZnBH14C6O3F4
C(S1(O[Mg]O1)[O])(F)(F)F,7.312328575638821,1.4595762061486313,1.0,MgCS(OF)3
CCc1ccsc1Cl,4.756980854742869,1.1674872226409208,0.0,H7C6SCl
COCCOn1c2ccccc2n(O)s1,4.28755777246406,2.0088731519113936,0.0,H12C9SN2O3
BrCc1nc2c(nc1CBr)cccc2,5.557751352747436,2.401483637769706,0.0,H4C5BrN
c1c([nH]c(=O)cn1)O,4.739485646515822,0.9908872652373248,0.0,H2C2NO
Cc1ccc(C(F)(F)F)s1,5.192033023101976,0.426918803893932,0.0,H5C6SF3
c1c(csc1N(=O)=O)C(F)(F)F,6.246643709973432,2.369326359055413,0.0,H2C5SNO2F3
c1(cc2c3c4c1c(=O)n(c(=O)c4cc(c3c(=O)n(c2=O)C)C#N)C)C#N,6.082194527990941,3.0821542522477103,0.0,H4C9(NO)2
[Zn][N][C][C](C#N)C#N,6.637845425968408,3.5706351362532587,1.0,ZnC4N3
COC(OC)C.[N]1[S@@]([O])(O[Zn]O[S@@]1([O])C(F)(F)F)C(F)(F)F,7.446096092354855,2.0245956827071496,1.0,ZnH10C6S2N(OF)6
COCCOC1=C(OC)S[C](C2=[S]C=CS2)S1,3.209185985478689,0.7658295475644992,0.0,H12C10S4O3
C1=C[S]=C([C]2SC(=C(F)S2)F)S1,3.460917610480101,0.8215767423112994,0.0,HC3S2F
C1=C[S]=C(C2=[S]C(=CS2)N(=O)=O)S1,3.583508984631044,2.2750751622676035,0.0,H3C6S4NO2
[N]1[S@@]([O])(O[Ca]O[S@@]1([O])C(F)(F)F)C(F)(F)F.C(=O)N(C)C,6.491753020216128,0.27869762321061,1.0,CaH7C5S2N2O5F6
CN(C)c1ccsc1C#N,4.09841668416775,0.640335034398595,0.0,H8C7SN2
Cn1ccc(=c2ccn(cc2)C(F)F)cc1,2.2282257281236526,-0.04735896341881,0.0,H6C6NF
COn1c2cc(ccc2[nH]s1)C(F)(F)F,4.049693474129162,3.8769004546316874,0.0,H7C8SN2OF3
COCCOCCOC1=C(O)S[C](C2=[S]C=CS2)S1,3.242808066600992,0.4290206275123638,0.0,H14C11(SO)4
CN(C)C1=C(OCCOCCOCCOC)S[C](C2=[S]C=CS2)S1,3.1122384942951613,0.6338417859602488,0.0,H23C15S4NO4
c12c3c4c5c1c1ccc5ccc4ccc3ccc2cc1,4.703300696573569,0.9229579366598046,0.0,HC2
CN(C)c1ccccc1.[N]1[S@@]([O])(O[Mg]O[S@@]1([O])C(F)(F)F)C(F)(F)F,6.481186565013195,1.8576017383617,1.0,MgH11C10S2N2(O2F3)2
c1c(csc1Cl)N(=O)=O,5.52898768732266,2.0933692471895484,0.0,H2C4SNClO2
CC(=O)c1cc(N)sc1,3.978103806251602,0.7431423501562677,0.0,H7C6SNO
COCCOCCOC1=C(OC)S[C](C2=[S]C=CS2)S1,3.2170833195719752,0.4098954328961555,0.0,H4C3SO
[Zn].B.[H],7.849884926486993,4.09885521621618,1.0,ZnBH4
COCCOCCOC.[N]1[S@@]([O])(O[Zn]O[S@@]1([O])C(F)(F)F)C(F)(F)F,7.260726314119529,1.435283033666201,1.0,ZnH14C8S2NO7F6
CC(=O)c1c(ccs1)N(=O)=O,5.695360069230082,2.300215982946247,0.0,H5C6SNO3
CCc1cc(C)sc1,4.528145445959671,-0.4555479910399298,0.0,H10C7S
COCCOCCOC1=C(C(=O)O)S[C](C2=[S]C=CS2)S1,3.3960657424700917,1.0223423460498453,0.0,H14C12S4O5
[B]12(OC(=O)C(=O)O1)OC(=O)C(=O)O2.O1[B]2(OC(=O)C(=O)O2)OC(=O)C1=O.[Mg],7.061042586030089,2.1527682994506905,0.0,MgB2(CO2)8
CN(C)c1ccccc1.[N]1[S@@]([O])(O[Ca]O[S@@]1([O])C(F)(F)F)C(F)(F)F,4.654925879332586,1.3762952733173734,1.0,CaH11C10S2N2(O2F3)2
CCc1cnc(cn1)Cl,5.7029403199499935,0.96061458164113,0.0,H7C6N2Cl
c1cnc(cn1)F,6.04334690604046,1.001226733945805,0.0,H3C4N2F
C=Cc1cnc(cn1)Cl,5.28685051328066,1.2353867248217285,0.0,H5C6N2Cl
c1csc(c1F)F,5.055437489832547,0.5483468097605511,0.0,H2C4SF2
n1c2c(nc(c1C)C)cccc2,5.254223065370388,1.0117991375424027,0.0,H5C5N
[Ca].[BH4],6.749673568530852,1.635253125037707,1.0,CaBH4
P(F)(F)(F)(F)(F)F.[Mg],9.734879605779131,1.7722936689984636,1.0,MgPF6
COCCOCCOCCOCCOC.[Zn].[B](F)(F)(F)F,6.896171965019311,1.0366606769035571,1.0,ZnBH22C10O5F4
[Zn]O[C]1OC[C@@H](O1)C.[B](F)(F)(F)F,7.831412207591347,2.436239783282508,1.0,ZnBH6C4O3F4
c1c(Cl)nc(cn1)N,4.856679982830974,0.7818163253810781,0.0,H4C4N3Cl
COCCOCCOCCOC1=C(C#N)S[C](C2=[S]C=CS2)S1,3.523441950042616,1.14483027884271,0.0,H17C14S4NO4
CN(C)C1=CS[C](C2=[S]C(=CS2)OCCOCCOC)S1,3.0737280050539995,0.7170882691803855,0.0,H19C13S4NO3
c1ccc2c(c1)nc(c(n2)O)O,5.087531583727104,1.0010164226019698,0.0,H3C4NO
c1(cc2c3c4c1c(=O)n(c(=O)c4cc(c3c(=O)n(c2=O)C)F)C)F,5.709908842423465,2.645763449801598,0.0,H4C8NO2F
COCCOCCOCCOCCOC.[Mg].[B](F)(F)(F)F,6.65396984284016,-0.2806843212878447,1.0,MgBH22C10O5F4
[Zn]OCC,6.533628995901381,3.3363992174708983,1.0,ZnH5C2O
[N]([S@@]([O])(O[Mg]O[CH]N(C)C)C(F)(F)F)S(=O)(=O)C(F)(F)F,6.868316259127459,0.9070691225439078,1.0,MgH7C5S2N2O5F6
c12c3c4c5c6c1c1ccc6Cc5ccc4Cc3ccc2C1,4.23094240123246,0.1924520862972714,0.0,H4C7
[N]1[S@@]([O])(O[Zn]O[S@@]1([O])C(F)(F)F)C(F)(F)F.CCOCC,8.067707960138796,2.7172106361482293,1.0,ZnH10C6S2NO5F6
Cn1c2c(cccc2[nH]s1)c1ccccc1,3.4169171973386256,0.3332160525475047,0.0,H12C13SN2
COc1c(ccs1)O,3.960828438799217,-0.4082481513527454,0.0,H6C5SO2
COc1ccsc1C(=O)O,4.977501901384676,0.962628403643612,0.0,H6C6SO3
CC(=O)c1ccsc1C(Cl)(Cl)Cl,5.521398810598475,2.873099231060769,0.0,H5C7SCl3O
c1cc2c3c4c1c(=O)n(c(=O)c4ccc3c(=O)n(c2=O)C)C,5.571750415159476,2.515701075911784,0.0,H5C8NO2
c1cc2c(cc1)c1c(cc2)ccc2c1c1c(cc2)cccc1,4.2389733404867,0.6528901873149153,0.0,H7C11
C[N](C)(c1ccccc1)[Zn].[B](F)(F)(F)F,6.844468292090459,3.1860595038247994,1.0,ZnBH11C8NF4
Cc1cscc1OCCOCCOC,4.422714062986051,-0.7087440973431511,0.0,H16C10SO3
C=Cc1ccsc1C(F)(F)F,5.017365411365608,0.789685487519455,0.0,H5C7SF3
CNC1=C(OCCOCCOC)S[C](C2=[S]C=CS2)S1,2.9451838985056384,0.6504367028188427,0.0,H17C12S4NO3
CN(C)C1=C(OCCOC)S[C](C2=[S]C=CS2)S1,3.094775825449324,0.6339976364339237,0.0,H15C11S4NO2
CC(=O)c1ccc(OC)s1,4.558093184810423,0.9613377949186545,0.0,H8C7SO2
C1=C[S]=C(C2=[S]C(=CS2)C(=O)O)S1,3.37914175017213,1.1336624303017744,0.0,H4C7(S2O)2
CCC1=CSC(=[S]1)[C]1SC=C(OCCOCCOCCOC)S1,3.1987186940328685,0.7270309224346421,0.0,H22C15(SO)4
S1(C)(C)O[Zn]2(O1)O[S@@]([N][S@](O2)([O])C(F)(F)F)([O])C(F)(F)F,6.844794104874017,2.102403108243016,1.0,ZnH6C4S3N(OF)6
c1c(csc1C(F)(F)F)C(Cl)(Cl)Cl,5.812204570554604,2.6445839288368007,0.0,H2C6S(ClF)3
c1cc2c3c4c1c(=O)n(c(=O)c4ccc3c1c3c2cccc3ccc1)C,4.12658779448393,2.006123787157412,0.0,H13C23NO2
c12c3c4ccc1c1c(c5c2c2c3c(cc4)ccc2cc5)c(=O)n(c1=O)C,4.905917686659086,2.053285629759193,0.0,H11C23NO2
Cn1ccc(=c2ccn(C)c(c2)C(=O)O)cc1,2.1439783476176677,0.7798266153891746,0.0,H14C13(NO)2
c1cnc(c(F)n1)N(=O)=O,6.704050715894118,2.5516864875040484,0.0,H2C4N3O2F
CC(=O)c1cscc1C(Cl)(Cl)Cl,5.715317055991909,0.954514763552288,0.0,H5C7SCl3O
COCCOCCOC1=C(C#N)S[C](C2=[S]C=CS2)S1,3.4387081823821064,1.1190454191397294,0.0,H13C12S4NO3
O=C(c1nc2c(nc1)cccc2)C,5.429060544167077,1.790816656635434,0.0,H8C10N2O
c1cc2c(cc1)c1c(cc2)ccc2c1c1c(cc2)ccc2c1cccc2,4.210792820469214,0.8042955053657352,0.0,H8C13
c1cc2c3c4c1c(=O)n(c(=O)c4cc(c3c1c3c2c(cc2c3c(cc1)c(=O)n(c2=O)C)C#N)C#N)C,4.944194680459622,2.941587369897752,0.0,H3C7NO
C#Cc1cscc1C(=O)C,5.093571659229928,0.8831388356498793,0.0,H6C8SO
CC(=O)c1c(ccs1)C#N,6.062898040437721,1.7261816225451183,0.0,H5C7SNO
c1c(C(F)(F)F)nc(cn1)Cl,6.32145267504311,1.5239272132581392,0.0,H2C5N2ClF3
CN(C)C1=C(OCCOCCOC)S[C](C2=[S]C=CS2)S1,3.087143775149889,0.631657397550589,0.0,H19C13S4NO3
COCCOCCOCCOC1=C(C(=O)O)S[C](C2=[S]C=CS2)S1,3.4199688152526506,1.0625465398275993,0.0,H9C7S2O3
FC(F)(F)c1nc2c(nc1)cccc2,5.700872668386728,1.691473801756365,0.0,H5C9N2F3
c1cc2c3c4c1c(=O)n(c(=O)c4cc(c3c1c3c2c(cc2c3c(cc1)c(=O)n(c2=O)C)F)F)C,4.595598885529034,2.5816283051623032,0.0,H6C13NO2F
c1c2c3c4c(c1)ccc1c4c4c5c3c(ccc5ccc4c3c1C(=O)N(C3=O)C)c1c2C(=O)N(C1=O)C,4.678959452475828,2.0791078996786383,0.0,H7C15NO2
COC(OC)C.[N]1[S@@]([O])(O[Ca]O[S@@]1([O])C(F)(F)F)C(F)(F)F,7.0493475305353055,0.5988846626220039,1.0,CaH10C6S2N(OF)6
C[C][N][Zn]1O[S@@]([N][S@](O1)([O])C(F)(F)F)([O])C(F)(F)F,6.934316442080307,1.7779933709185571,1.0,ZnH3C4S2N2(O2F3)2
COC(OC)C.[Zn].[B](F)(F)(F)F,8.082395565821207,2.355348614024115,1.0,ZnBH10C4(OF2)2
CC#N.[N]1[S@@]([O])(O[Mg]O[S@@]1([O])C(F)(F)F)C(F)(F)F,6.865330479152908,0.9951863400725416,1.0,MgH3C4S2N2(O2F3)2
COC(OC)C.[N]1[S@@]([O])(O[Mg]O[S@@]1([O])C(F)(F)F)C(F)(F)F,7.400366319592285,1.094538830505917,1.0,MgH10C6S2N(OF)6
[Zn]N([Si](C)(C)C)[Si](C)(C)C,6.307106786043732,3.555180757350172,1.0,ZnSi2H18C6N
[Mg]OCC,4.713739143971543,1.325682227232028,1.0,MgH5C2O
C1CCC(C1)(C#N)N(=O)=O,7.382776187785202,1.8584441712242552,0.0,H4C3NO
C=CC1(CCCC1)OC,5.453205295399675,-0.805815937599982,0.0,H14C8O
C[C@@H]1CCC[C@@H]1F,6.265931342937256,-0.8559135879790118,0.0,H11C6F
C[NH2][C@H]1CCC[C@H]1[NH3],0.2316191916630487,-0.5503884367411955,0.0,H8C3N
CNC[C@H](NC)O.C(#N)C=C,4.184644343196487,1.0398764747129463,0.0,H15C7N3O
CNCCN(C)C(=C)O.[C]=N,3.8404499379117625,-0.5374992613655194,0.0,H15C7N3O
C#C[C@@H]1CC[C@H](C1)N(=O)=O,6.412082479138553,1.4756890685617692,0.0,H9C7NO2
CC[C@@H]1CCC[C@@H]1C#N,6.547875941039456,-0.7495771068719477,0.0,H13C8N
C1CCC(C1)([NH3])[NH3],0.3045093568831363,-0.5578631644297274,0.0,H14C5N2