smiles,IE,EA,charge,formula_pretty
c1cc(ccn1)c1c(cncc1O)C,5.128901918652991,0.8090772448427743,0.0,H10C11N2O
C1CCCS[C@H]1C,4.644014487193635,-0.8879541706868621,0.0,H12C6S
c1c(c(ccn1)c1ccncc1)O,5.186217193889751,0.9733785547228764,0.0,H8C10N2O
Cc1cscc1C(Cl)(Cl)Cl,5.191066482906171,2.780312159107416,0.0,H5C6SCl3
c1c(c2c(cc1)nccn2)C,5.12703122037019,1.2104309197817202,0.0,H8C9N2
C1CC[C@@](SC1)(F)C,5.0981015355806445,-0.8541705301307956,0.0,H11C6SF
C1C[C@H]([C@H](SC1)C#C)C#C,4.993002640343184,-0.581477211506717,0.0,H10C9S
c1cc(ccn1)c1cc(ncc1C)NC,4.123174129102699,0.7914849736094767,0.0,H13(C4N)3
c1(cc(ccn1)c1ccncc1)C,5.690420081955017,1.0442158251149525,0.0,H10C11N2
c1cc(ccn1)c1cc(ncc1C)N,4.315551448234691,0.8104145428602352,0.0,H11C11N3
c1c(c2c(cc1)ncc(n2)C#C)C#C,5.118648767176273,1.7137417615373125,0.0,H3C6N
c1(cc2c(cc1)nccn2)O,4.962977542246881,1.2214088247015753,0.0,H6C8N2O
C1CCCS[C@H]1NC(=O)C,4.801590318516537,-0.7783607630175537,0.0,H13C7SNO
c1cc(ccn1)c1cc(ncc1C#C)C#C,5.2724180388227975,1.3652683879096004,0.0,H4C7N
c1cc(N)sc1,3.7080622914087145,-0.5410717840881261,0.0,H5C4SN
C(N)CC,4.754840216809134,-0.838275051950768,0.0,H9C3N
c1c(c(ccn1)c1ccncc1)N,4.37829414010921,0.7982243789589121,0.0,H9C10N3
c1cc(cc(n1)C)c1ccncc1O,5.232590110442834,0.9436873484679382,0.0,H10C11N2O
c1c(c2c(cc1)nccn2)CC,5.107469117057553,1.1941434670621676,0.0,H5C5N
C1CCCS[C@H]1C#N,5.125935077799658,1.0671171053632862,0.0,H9C6SN
c1c(ccs1)O,4.522073274628928,-0.4464815552222716,0.0,H4C4SO
c1(cccs1)C(=O)O,5.453356943905964,1.0149254180592835,0.0,H4C5SO2
c1c(c(ccn1)c1ccncc1)c1ccccc1,5.008594559208722,0.986395865785744,0.0,H6C8N
c1cc(cc(n1)N(C)C)c1ccnc(c1)C,4.088206273610558,0.8758642721819343,0.0,H15C13N3
c1cc(ccn1)c1cc(ncc1C)C(Cl)(Cl)Cl,5.880195677143638,2.880199804939912,0.0,H9C12N2Cl3
Cc1ccccc1,5.169521162242381,-0.7146537775701289,0.0,H8C7
c1(cc2c(cc1)nccn2)C#N,5.733837262615998,1.685119595318247,0.0,H5(C3N)3
c1(cccs1)O,4.341745542676653,-0.4199938853293132,0.0,H4C4SO
O=C(C)C,5.883211065824616,0.1002111250469171,0.0,H6C3O
O1CCCC1,5.5407301722649205,-1.05092572010235,0.0,H8C4O
C1C(CCSC1)NC(=O)C,4.838892192362982,-0.7268038302157946,0.0,H13C7SNO
[C@@H]1(CCCSC1)C(=O)O,4.615301045834348,-0.2026614060690916,0.0,H10C6SO2
C1C[C@H]([C@H](SC1)N(=O)=O)N(=O)=O,5.274908049160876,1.9316301530467173,0.0,H8C5S(NO2)2
c1c(c2c(cc1)ncc(n2)C(=O)O)C(=O)O,5.563750472386891,2.0544950206618524,0.0,H3C5NO2
c1c(c2c(cc1)nccn2)N,4.081971340110249,1.1505804497079226,0.0,H7C8N3
C1CC[C@H](S[C@H]1F)C,5.2449306852737205,-0.8211516083705646,0.0,H11C6SF
c1cc(ccn1)c1ccnc(c1N)N,3.90868421086052,0.7233429663006974,0.0,H5C5N2
c1(cc(ccn1)c1ccncc1)OC,5.132463423485751,1.0130603008270556,0.0,H10C11N2O
c1c(c2c(cc1)nccn2)NC,3.928827116671164,1.1015931232574077,0.0,H3C3N
OC(=O)CC,6.661624127567484,-0.0851016888967932,0.0,H6C3O2
c1(cc2c(cc1)nccn2)N(=O)=O,5.772161636863165,2.3296526239842934,0.0,H5C8N3O2
[C@@H]1(CC[C@H](SC1)C#C)C,4.8619109577681225,-0.7802617965557146,0.0,H12C8S
C1CC[C@@](SC1)(C#N)C,5.186701809588703,1.068023187306244,0.0,H11C7SN
c1(cc(ccn1)c1ccncc1)c1ccccc1,4.967335399118019,1.091162461039494,0.0,H6C8N
O1[C@H](COC1=O)C,6.971879235013693,-0.7699452425516937,0.0,H6C4O3
Cc1ccc(C)s1,4.421012467124092,-0.3530635737282863,0.0,H8C6S
OC(CO)CO,5.539917507008431,-0.4398600595290189,0.0,H8(CO)3
c1(cc2c(cc1)C(=O)c1c(C2=O)cccc1)C,5.649566001402127,2.1516044005307777,0.0,H10C15O2
C1CCC(SC1)(C(=O)O)C(=O)O,5.1447947518878205,1.6029700927843806,0.0,H10C7SO4
CNc1cccs1,3.5228284993223498,-0.3708123893287847,0.0,H7C5SN
c1(cc(ccn1)c1ccncc1)N,4.521487027135299,0.9718306868504444,0.0,H9C10N3
c1cc2c(cc1)ncc(n2)c1ccccc1,4.962690976442536,1.334670634406939,0.0,H5C7N
C1CCCS[C@H]1N(C)C,4.00398180781267,-0.8953413022085441,0.0,H15C7SN
c1cc(ccn1)c1c(cncc1C)C=C,5.020149778128689,0.8363982960232534,0.0,H12C13N2
c1(cc2c(cc1)nccn2)c1ccccc1,4.873260730733454,1.3149595460505226,0.0,H5C7N
[C@@H]1(CC[C@H](SC1)O)C,4.891292011388577,-0.8628028028782864,0.0,H12C6SO
[C@@H]1(CCCSC1)C#C,4.80784566871589,-0.6611437949926766,0.0,H10C7S
c1c(c2c(c(c1)NC(=O)C)nccn2)C,4.615687602586695,1.354720460954559,0.0,H11C11N3O
C1C(CCSC1)F,4.777004174682224,-0.8485212101026263,0.0,H9C5SF
[C@@H]1(CCCSC1)C#N,4.975243419111939,-0.5698825796229356,0.0,H9C6SN
Cc1ccc(C(=O)O)s1,5.136778267316549,0.9431707811614616,0.0,H6C6SO2
c1cc(ccn1)c1cc(ncc1C)C,5.37747730340161,0.8681311751275644,0.0,H6C6N
[C@@H]1(CCCSC1)N(C)C,3.808965204859851,-0.8444708119444839,0.0,H15C7SN
c1(cc2c(cc1)C(=O)c1c(C2=O)cccc1)F,5.8902501120443045,2.252861984435731,0.0,H7C14O2F
c1c(c2c(cc1)nccn2)C#C,5.111732912334992,1.4762477557156672,0.0,H3C5N
c1cscc1N,3.861243816214119,-0.6476678714338049,0.0,H5C4SN
Cc1cccs1,4.696851802683886,-0.3127624529883177,0.0,H6C5S
[C@@H]1(CCCSC1)NC,4.189669757893716,-0.8885695044322346,0.0,H13C6SN
C1CCCS[C@H]1O,4.7670107776335495,-0.4425492816830227,0.0,H10C5SO
CCc1cccs1,4.689261881046695,-0.3402150412752234,0.0,H8C6S
C1C(CCSC1)N(C)C,3.954802213889343,-0.8860875459489761,0.0,H15C7SN
c1c(c2c(cc1)C(=O)c1c(C2=O)cccc1)N(C)C,4.157978939425084,1.9704615270798969,0.0,H13C16NO2
[C@@H]1(CCCSC1)NC(=O)C,4.785882593443239,-0.6968315630241704,0.0,H13C7SNO
Clc1ccc(cc1)C(F)(F)F,5.795267625633278,1.1558571234432748,0.0,H4C7ClF3
c1(cc(ccn1)c1ccncc1)C#C,5.6199419855034645,1.2240132507391537,0.0,H4C6N
c1cc(ccn1)c1ccnc(c1C)OC,4.903814404516742,0.7865230185831025,0.0,H12C12N2O
C1CCCS[C@H]1N,4.219702355445042,-0.6845432558206084,0.0,H11C5SN
c1(cc2c(cc1)nccn2)NC,4.13314203724949,1.0412190843904685,0.0,H3C3N
c1(cc2c(cc1)nccn2)C(Cl)(Cl)Cl,5.643959814145637,2.726450261537684,0.0,H5C9N2Cl3
c1c(c2c(cc1)nccn2)c1ccccc1,4.767524572101683,1.25948315082278,0.0,H5C7N
c1c(c2c(cc1)nccn2)C(Cl)(Cl)Cl,5.574234980494657,2.927474133955548,0.0,H5C9N2Cl3
c1cc(c(cn1)C)c1ccnc(c1)N(C)C,4.0830221594020255,0.7179285730322591,0.0,H15C13N3
c1c(c2c(cc1)nccn2)C(=O)O,5.330098194231686,1.6306498335412472,0.0,H6C9(NO)2
Cc1cc(cs1)F,4.8241578783578,-0.1367244269844376,0.0,H5C5SF
C(O)c1c(C)cccc1,5.158798834805202,-0.2727738468296592,0.0,H10C8O
c1cc(cc(n1)C)c1ccncc1N(C)C,4.074584050763951,0.8598893721333298,0.0,H15C13N3
[C@@H]1(CCCSC1)N,4.448571751248528,-0.7930284553935052,0.0,H11C5SN
c1c(c2c(cc1)nc(cn2)N)N,3.896769069691436,0.903411956094351,0.0,H2C2N
OCC,6.253888534116959,-0.6150530468898068,0.0,H6C2O
c1cc2c(cc1)ncc(n2)NC(=O)C,5.043839663330436,1.2867854941774568,0.0,H9C10N3O
c1(cc2c(cc1)C(=O)c1c(C2=O)cccc1)c1ccccc1,5.045276005342748,2.191628041347576,0.0,H6C10O
OC=O,7.103380446198207,0.0853549040390135,0.0,H2CO2
O=C1N(CCC1)C,5.201622649472119,-0.9684821740742336,0.0,H9C5NO
c1c(c(ccn1)c1ccncc1F)F,5.919731488594698,1.222226880532253,0.0,H3C5NF
c1cc(ccn1)c1cc(nc(c1)N(=O)=O)C,5.828521525859832,2.184540741183446,0.0,H9C11N3O2
C1CC[C@H](S[C@H]1C)F,5.249762923636444,-0.8210616094460419,0.0,H11C6SF
Fc1c(F)cccc1,5.531916274417744,-0.1369319437202647,0.0,H2C3F
c12c3c(ccc1cccc2)cccc3,4.48352787047188,0.3690497579478689,0.0,H5C7
[C@@H]1(CCCSC1)OC,4.705960299137223,-0.8546368679439182,0.0,H12C6SO
OC(=O)C,6.676515157376889,-0.5383228955346566,0.0,H2CO
c1c(c2c(cc1)nccn2)N(=O)=O,5.642532247796771,2.203248164858087,0.0,H5C8N3O2
c1cc(cc(n1)C)c1ccncc1C#N,5.662994868319947,1.432616571125982,0.0,H3C4N
C1CC[C@H](S[C@H]1C)N,4.305944104531227,-0.7634102518408326,0.0,H13C6SN
c1cc(ccn1)c1ccnc(c1O)C,5.031239900070068,0.9072471258128644,0.0,H10C11N2O
c1cc(ccn1)c1ccnc(c1C)N(=O)=O,5.857146290769014,2.0393379750836176,0.0,H9C11N3O2
c1cc(ccn1)c1c(cncc1C)OC,4.9822204750722445,0.7247846961668984,0.0,H12C12N2O
C1C[C@H]([C@H](SC1)F)C,4.970720152404828,-0.8910008225378987,0.0,H11C6SF
c1nnco1,7.151551822974033,0.0862049114781258,0.0,H2C2N2O
c1cc(cc(n1)N(C)C)c1ccncc1N(C)C,5.391542134566407,2.137330466597632,0.0,H9C7N2
C(CCCCOCCO)CCCCCCC,5.578308600850141,-1.0842748574454162,0.0,H15C7O
c1cc2c(cc1)ncc(n2)OC,5.061534445288634,1.0697504870382546,0.0,H8C9N2O
c1cc(ccn1)c1cc(ncc1CC)C,5.344414035252703,0.8311355735655526,0.0,H14C13N2
C1CCCS[C@H]1c1ccccc1,4.570105976753984,1.1107826851453866,0.0,H14C11S
c1cc(ccn1)c1cc(ncc1C#N)C,5.853414273960516,1.4052656091931568,0.0,H3C4N
C1C[C@](CSC1)(F)C,4.812099738640972,-0.8526305998188035,0.0,H11C6SF
C1CC[C@H](S[C@H]1NC(=O)C)C,4.904586532980465,-0.5780537146514688,0.0,H15C8SNO
c1cc(ccn1)c1ccnc(c1C)F,5.737571524363011,1.0095549031444535,0.0,H9C11N2F
[N](C#N)c1c(C)cc(c(c1)Cl)[N]C#N,6.164463719798368,3.5294508929961013,0.0,H5C9N4Cl
c1(cc2c(c(c1)C(=O)O)nccn2)C,5.296920333499292,1.5774565196785262,0.0,H4C5NO
[C@@H]1(CCCSC1)N(=O)=O,5.014747510247252,1.68881987004861,0.0,H9C5SNO2
C(CC(=O)O)CCCCCCCCSC(=O)C,5.479783872551343,0.1611374760956097,0.0,H24C13SO3
c1cc2c(cc1)nccn2,5.459902868147401,1.2703552769304225,0.0,H3C4N
O(CC)C(=O)C,6.392572111158733,-0.1857672047921368,0.0,H4C2O
c1c(c2c(cc1)ncc(n2)C)N,4.01762617528002,1.08176499874171,0.0,H3C3N
c1cc(ccn1)c1ccnc(c1C)O,5.095699151342705,0.861214403260965,0.0,H10C11N2O
COc1cccs1,4.188999027211684,-0.1014227857689546,0.0,H6C5SO
[C@@H]1(CC[C@H](SC1)C)NC(=O)C,4.818144856411527,-0.5985454622335964,0.0,H15C8SNO
c1cc(ccn1)c1cc(nc(c1)F)C,5.7460524990870905,1.1786609352362576,0.0,H9C11N2F
c1(cc2c(cc1)C(=O)c1c(C2=O)cccc1)C(=O)O,6.066779627338837,2.371124130831595,0.0,H8C15O4
CNc1ccc(NC)s1,2.728728638061148,-0.4888811253716993,0.0,H10C6SN2
C1C[C@H]([C@H](SC1)C)N,4.381243105808244,-0.8904940132291812,0.0,H13C6SN
OCCO,5.650516353543571,-0.5511181508185472,0.0,H3CO
c1cc(ccn1)c1ccnc(c1C)C=C,5.085807878616469,0.8772513806412463,0.0,H12C13N2
c1cc(ccn1)c1cc(ncc1C)C#N,5.859546362034598,1.2437461490204442,0.0,H3C4N
O(C(=O)C)c1ccc(cc1)c1ccc(cc1)F,4.675740604272141,0.2848037189665775,0.0,H11C14O2F
c1c(c(cs1)N(=O)=O)C,5.446664246902946,1.9097701245642384,0.0,H5C5SNO2
c1c(c2c(cc1c1ccccc1)nccn2)c1ccccc1,6.12467899920739,2.7187307935055287,0.0,H7C10N
c1c(c2c(cc1)nccn2)O,4.787409195614236,1.223265963551603,0.0,H6C8N2O
C1CCCS[C@H]1C#C,4.864549506882758,-0.8408633906205067,0.0,H10C7S
c1cc(c(cn1)C)c1ccncc1OC,4.987279841415875,0.7647617157177593,0.0,H12C12N2O
c1(cc(ccn1)c1ccncc1F)C,5.636331437375338,1.1260180314799073,0.0,H9C11N2F
c1cc(cc(n1)O)c1ccncc1O,5.218284919961297,0.9810139765118948,0.0,H4C5NO
C1(=C(C1)O)SC=O,4.436852540207473,0.6989225234661718,0.0,H4C4SO2
c1cc(c(cn1)C)c1ccncc1C#N,5.707323668435128,1.3186119940488426,0.0,H3C4N
c1c(c2c(c(c1)NC)nccn2)C,3.6865097406785936,1.1119362192435802,0.0,H11C10N3
c1cc(ccn1)c1ccnc(c1C#N)C#N,5.838965450906107,1.7090752051313758,0.0,H3(C3N)2
N(CC)(CC)CC,3.833696118694752,-1.077502194347653,0.0,H15C6N
c1(cc2c(cc1)C(=O)c1c(C2=O)cccc1)N(C)C,4.215609406846488,1.9555074185642296,0.0,H13C16NO2
c1(cccs1)C#N,5.485849638318177,0.8465155375248288,0.0,H3C5SN
c1(c(c2c(cc1)nccn2)C)NC,3.988567228255852,1.1142625422231505,0.0,H11C10N3
[C@@H]1(CC[C@H](SC1)C)CC,4.650017936177028,-0.8753176720587361,0.0,H16C8S
CCCCN,4.719654384525347,-0.7679479977263326,0.0,H11C4N
c1(cc2c(cc1)nc(cn2)N(=O)=O)N(=O)=O,6.332284503807022,2.939606740340969,0.0,HC2NO
c1c(c2c(cc1N)nccn2)C,4.1916391273767655,1.0421875348234608,0.0,H3C3N
c1(cc2c(cc1)C(=O)c1c(C2=O)cccc1)N,4.52357218377947,2.0362034195874004,0.0,H9C14NO2
C1CCCS[C@H]1F,5.246016786842665,-0.9042924107401632,0.0,H9C5SF
FC(F)(C(F)(F)C(F)(F)C(F)(F)F)C(F)(F)C(F)(F)F,8.818576363869942,1.3474699931699434,0.0,C3F7
C1CCCS[C@H]1CC,4.6111159132247845,-0.8937396483182964,0.0,H14C7S
[C@@H]1(CCCSC1)CC,4.6427735936718815,-0.8660398418891417,0.0,H14C7S
c1c(c2c(cc1)nccn2)NC(=O)C,4.782735196889552,1.4186155767034507,0.0,H9C10N3O
c1(c(c2c(cc1)nccn2)C)NC(=O)C,4.957639256500988,1.3317154400225264,0.0,H11C11N3O
c1(ccc(s1)C)C#C,4.543594752679928,0.5677222729114875,0.0,H6C7S
[C@@H]1(CC[C@H](SC1)C)C(=O)O,4.802947489004145,0.0261908792177565,0.0,H12C7SO2
c1cc(ccn1)c1ccnc(c1C#C)C,5.298139253836416,1.1086989543779056,0.0,H10C13N2
ClC(Cl)Cl,7.335430499022186,2.3516954857565,0.0,HCCl3
C1CC[C@H](S[C@H]1C)C#C,4.814912922252551,-0.5801387216291913,0.0,H12C8S
c1(cc2c(cc1CC)nccn2)C,5.160123773409941,1.154388261101849,0.0,H12C11N2
c1cc(cc(n1)C)c1ccnc(c1)N(=O)=O,5.619121279277897,2.2346528474605294,0.0,H9C11N3O2
c1cc(ccn1)c1cc(ncc1O)O,4.676068547707109,1.0022235495212954,0.0,H4C5NO
c1cc2c(cc1)nc(c(n2)C)C(Cl)(Cl)Cl,5.511929061265255,2.747491183837701,0.0,H7C10N2Cl3
c1cc(c(cn1)O)c1ccncc1O,5.039004769134044,0.8497728979979002,0.0,H4C5NO
c1cc(cc(n1)C)c1ccnc(c1)F,5.624988984267111,1.185737527722813,0.0,H9C11N2F
ClCCl,7.133607278608542,1.959455877434812,0.0,H2CCl2
c1c(c2c(cc1)ncc(n2)c1ccccc1)c1ccccc1,6.067900400488725,2.7378463498462224,0.0,H7C10N
c1(cc(ccn1)c1ccncc1OC)C,5.095143998294224,0.9886331639951096,0.0,H12C12N2O
c1c(c2c(cc1)ncc(n2)C)C#C,5.032527507377017,1.4101409558330489,0.0,H8C11N2
C(Sc1ccccc1)[C@@H]1CN(C(=O)O1)C,4.575405755674728,0.6529352194353124,0.0,H13C11SNO2
Cc1cc(cs1)N,3.7166184729590896,-0.7017264692061871,0.0,H7C5SN
C1[C@H](C[C@H](SC1)CC)C,4.603058592534216,-0.8329187849216395,0.0,H16C8S
c1cc(ccn1)c1c(cncc1F)C,5.778182966446911,0.9490272614544666,0.0,H9C11N2F
C1CC[C@@](SC1)(C)C#C,4.506914933791995,-0.8842613763721601,0.0,H12C8S
c1c(c2c(cc1)ncc(n2)NC)NC,3.518479782762006,0.8285074817882561,0.0,H6C5N2
C1CCCS[C@H]1N(=O)=O,5.184481415087793,2.004617130931001,0.0,H9C5SNO2
C1CCCS[C@H]1OC,4.824186931951408,-0.7930479986120189,0.0,H12C6SO
S([S])[S],5.825248186859971,3.531601174645038,0.0,S
C1CCCS[C@H]1C=C,4.717222119471989,1.2596924226905686,0.0,H12C7S
[C@@H]1(CCCSC1)C,4.658055324530869,-0.8880597127630607,0.0,H12C6S
[C@@H]1(CC[C@H](SC1)C)C=C,4.696817480967729,-0.6681295939801202,0.0,H14C8S
c1cc(ccn1)c1c(cnc(c1)NC(=O)C)C,4.876305420637072,1.0133083380329482,0.0,H13C13N3O
c1cc(ccn1)c1c(cnc(c1)C#C)C,5.331620227612438,1.0385751256522782,0.0,H10C13N2
c1c(c2c(cc1)nc(cn2)C=C)C,4.993119287382433,1.2597953932905512,0.0,H10C11N2
C1[C@H](C[C@H](SC1)C)C(=O)O,4.83068948396758,-0.0256149833207017,0.0,H12C7SO2
C(#N)c1ccncc1,5.961995815437694,1.2207509704490804,0.0,H2C3N
C(=O)C,6.191409547764669,0.2961609124800817,0.0,H4C2O
c1cc2c(cc1C)C(=O)c1c(C2=O)cc(cc1)NC(=O)C,5.065818624612438,2.185346217194456,0.0,H13C17NO3
c1cc(ccn1)c1ccnc(c1C)C#N,5.839052070184698,1.2426787634409266,0.0,H3C4N
Cc1nc(N)ccc1,4.302741161383528,-0.1805140879536337,0.0,H4C3N
c1(cc(ccn1)c1ccnc(c1)N(=O)=O)N(=O)=O,6.616744111890148,2.2849917198087497,0.0,H3C5(NO)2
Fc1ccccc1,5.445229390632084,-0.2980701043765292,0.0,H5C6F
C(C(=O)O)c1cccs1,4.8531953991419865,0.0405218279971451,0.0,H6C6SO2
c1cc2c(cc1C)C(=O)c1c(C2=O)cc(cc1)N(C)C,4.198251708626776,1.9217742197448389,0.0,H15C17NO2
c1c(c2c(cc1)nc(cn2)C)C(=O)O,5.2630398122506445,1.5676090844950523,0.0,H4C5NO
c1(cc2c(cc1)nc(cn2)NC)NC,3.4957424102809456,0.9250549302501896,0.0,H6C5N2
C(C=O)(F)(F)F,7.22282000740015,1.59336214498544,0.0,HC2OF3
S(Sc1c(N)cccc1)c1c(N)cccc1,3.994024093053304,2.0121749866753817,0.0,H6C6SN
C(CCl)(Cl)(Cl)Cl,7.147292936629674,2.52779037811124,0.0,HCCl2
[Si](C#Cc1ccccc1)(C(C)C)(C(C)C)C(C)C,4.8969410756304566,0.3091461304298719,0.0,SiH26C17
c12c(cccc2)OC=CC1,4.388586296384892,-0.3881521334791613,0.0,H8C9O
O(C)c1c(Cl)c(Cl)ccc1Cl,5.139812336624891,1.4672789897173062,0.0,H5C7Cl3O
c1cc(c(cn1)N(=O)=O)c1ccnc(c1)N(=O)=O,6.385282584150991,2.3816506424278487,0.0,H3C5(NO)2
c1(cc2c(cc1)ncc(n2)NC)C,4.335445859687388,0.949397159403452,0.0,H11C10N3
c1cc(ccn1)c1cc(ncc1C)N(C)C,3.939863433542632,0.7528648143394094,0.0,H15C13N3
C(S([O])([O])O)C(=O)O,6.884710149178863,2.0357338844383777,0.0,H4C2SO5
Cc1cc(OC)sc1,4.0913204260083145,-0.7264228436310076,0.0,H8C6SO
c1cc(ccn1)c1ccnc(c1F)F,5.849946814394206,1.2729650037450484,0.0,H3C5NF
S=c1[nH]cc[nH]1,4.143554405256145,-0.7383123299063299,0.0,H4C3SN2
C(C#N)F,8.280833420678936,1.4512199330280056,0.0,H2C2NF
[C@@H]1(CC[C@H](SC1)N(=O)=O)C,5.272935125869116,1.5647947852135986,0.0,H11C6SNO2
c1cc(ccn1)c1cc(ncc1c1ccccc1)C,4.884285656922293,0.9474132345509134,0.0,H14C17N2
C(=C)(C#N)C,6.188006209100967,0.6211281593792592,0.0,H5C4N
C(OCC)(F)(F)c1ccc(cc1)OC,4.908234384971001,0.7531305362259446,0.0,H6C5OF
c1cc(ccn1)c1ccnc(c1c1ccccc1)C,5.007026274639065,0.8798346253330238,0.0,H14C17N2
Clc1c(Cl)c(Cl)c(c(c1Cl)Cl)O,5.254121849904186,1.828411232455983,0.0,HC6Cl5O
C1CC[C@H](S[C@H]1C)OC,4.744573533110815,-0.9151358941402576,0.0,H14C7SO
N(=O)(=O)c1c(Cl)c(Cl)c(c(c1Cl)Cl)Cl,5.899689741106704,2.0816465095500463,0.0,C6NCl5O2
[CH]SC(=C=CF)F,4.842606097275711,2.000142711379885,0.0,H2C4SF2
c1(cc(ccn1)c1ccncc1C)C,5.66960471754428,0.8648445079903468,0.0,H6C6N
C1[C@H](C[C@H](SC1)C#C)C,4.855034415207774,1.0429872583459656,0.0,H12C8S
C1C[C@@H]2[C@H](SC1)N[C@@](C)(O)C2,4.528218347977235,-0.6865901859113364,0.0,H15C8SNO
C1CC[C@H](S[C@H]1C)O,4.875179712898534,-0.803448186800233,0.0,H12C6SO
c1(cc2c(cc1)C(=O)c1c(C2=O)cccc1)CC,5.63721684138145,2.1424582652958635,0.0,H6C8O
O=C1NC(=S)SC1,5.477157329097826,1.2990131689708506,0.0,H3C3S2NO
C(C(=O)O)N1C=CCC=C1.[Cl],5.288591143865778,1.7019363312261704,0.0,H8C7NClO2
C=C,6.1263308565477015,-0.5208096107857272,0.0,H2C
C(=O)c1cc(Cl)cc(c1)Cl,5.706494031439069,1.5012280754977838,0.0,H4C7Cl2O
c1cc(ccn1)c1c(cncc1OC)OC,4.887101695008459,0.7557727071740374,0.0,H6C6NO
S(=O)(=O)(Sc1c(Cl)ccc(c1)Cl)c1c(Cl)ccc(c1)Cl,5.431161009948118,2.7120787623513025,0.0,H3C6SCl2O
C1CC[C@H](S[C@H]1C)CC,4.621306813217961,-0.9027681813990056,0.0,H16C8S
c1c(c2c(cc1)nc(cn2)C)N(=O)=O,5.56030373972826,2.1552980955508247,0.0,H7C9N3O2
C(C(F)(F)F)N1[C@@H](C)CCC[C@@H]1C,4.218609325858415,-0.9653581466613104,0.0,H16C9NF3
C(NCC)C,4.265103058233398,-1.0544234849907297,0.0,H11C4N
Clc1c(Cl)cccc1Cl,5.618850740969355,1.3954381771050977,0.0,HC2Cl
c1[c]c(ccn1)c1cc(ncc1[C](O)O)C(=O)O,2.7369329818662664,2.627166670333827,0.0,H4C6NO2
c1cc(c(cn1)C)c1ccnc(c1)N(=O)=O,5.667591548617201,2.2226483903665213,0.0,H9C11N3O2
Cn1cncn1,5.89894469613373,-0.8815569675447477,0.0,H5(CN)3
c1cc2c(cc1)C(=O)c1c(C2=O)c(c(cc1)O)O,4.910464485773991,2.0313536543704687,0.0,H4C7O2
c1cc(ccn1)c1ccnc(c1C)c1ccccc1,4.964253236413788,0.8689829132104934,0.0,H14C17N2
c1(cc2c(cc1)ncc(n2)N(C)C)C,4.167875978245865,0.8988748850493722,0.0,H13C11N3
c1(ccc(s1)N(=O)=O)C,5.52208308167028,2.0992989750790003,0.0,H5C5SNO2
c1(cc2c(cc1)C(=O)c1c(C2=O)cc(cc1)C)F,5.685234275196853,2.219257340364129,0.0,H9C15O2F
c1c(c(ccn1)c1ccncc1N)C,4.399312117764202,0.6792985414682335,0.0,H11C11N3
c1cc2c(cc1)C(=O)c1c(C2=O)cc(cc1C#N)C#N,6.229627805781638,2.670810712302773,0.0,H3C8NO
Cc1c2c3c4c(CC2)c(C)ccc4CCc3cc1,4.22722481734454,0.0300777560056304,0.0,HC
[C@@H]1(C[C@H](CSC1)C)N(=O)=O,5.014302908891841,1.688655491519603,0.0,H11C6SNO2
OC,6.517587091711084,-0.6800905346289254,0.0,H4CO
c1cc2c(cc1)C(=O)c1c(C2=O)cccc1,5.931106064739288,2.1837918131474,0.0,H4C7O
Nc1c2c(nc[nH]1)ncn2,4.74320342632709,0.0573474320968672,0.0,HCN
c1ccnnc1,5.0988352987084,0.7529697142250371,0.0,H2C2N
Fc1c(F)c(O)c(c(c1O)F)F,4.940249778102588,0.6759721157846799,0.0,HC3OF2
C(C)(C)(C)c1c(O)c(C(C)(C)C)cc(c1)C(C)(C)C,4.271334111390024,-0.8223449173514381,0.0,H30C18O
c1(c(c2c(cc1)nccn2)C)N(C)C,3.939733450204221,1.1282848023434782,0.0,H13C11N3
c1cc2c(cc1)C(=O)c1c(C2=O)cc(c(c1)N)N,4.083380634002969,1.9649438829415888,0.0,H5C7NO
c1(c(c2c(cc1)nccn2)C(=O)O)C(=O)O,5.75146765427562,1.841882399466704,0.0,H3C5NO2
C(=CCl)(Cl)Cl,5.562062332553614,1.6971452500816668,0.0,HC2Cl3
c1(c2c(ccc1)cccc2)c1oc(cn1)c1ccccc1,4.163630025477323,1.0366429051478918,0.0,H13C19NO
c1cc(c(cn1)C)c1ccncc1c1ccccc1,5.068480265306425,0.7776199163759885,0.0,H14C17N2
C1CC[C@@](SC1)(OC)C,4.8076952795578105,-0.8311680044847889,0.0,H14C7SO
C(=O)(OC)c1c2c(ccc1)cccc2,4.783465896017878,1.0742165663010383,0.0,H5C6O
C(#N)C1=C(C#N)C(=O)c2c(C1=O)cn(c2)C,5.497894308396644,3.222181609065592,0.0,H5C11N3O2
C(=S)(N)c1ccccc1,4.654043985586759,1.2842782780840936,0.0,H7C7SN
Cc1cccnc1,5.485731404854596,0.0460899492578392,0.0,H7C6N
C(COC)C#N,6.198455296146312,-0.0508557731849577,0.0,H7C4NO
c1cc(ccn1)c1cc(ncc1C)F,5.680720820915303,1.0516364674564105,0.0,H9C11N2F
[C@H]1([C]S1)C(Cl)(Cl)Cl.C(#C)C(Cl)(Cl)Cl,3.364822077791905,2.319534223288065,0.0,H2C6SCl6
c1c(c2c(c(c1)C(=O)O)nccn2)C(=O)O,5.4191030579801005,2.0351122567022686,0.0,H3C5NO2
Cl[C@@]12[C@@H]3[C@H]([C@@]([C@@H]1Cl)(C=C2Cl)Cl)[C@H]1C[C@@H]3C=C1,5.214770719403168,1.1769208515921492,0.0,H5(C3Cl)2
C(#CC(=O)O)C(=O)O,6.830561293969003,1.9960721250932691,0.0,H(CO)2
Cc1c(c2c(nc1OCC)cccc2)c1ccccc1,4.692645026143145,0.5330092438649445,0.0,H17C18NO