smiles,IE,EA,charge,formula_pretty
c1(ccc(s1)c1ccccc1)C,4.175047334375995,0.434878911919077,0.0,H10C11S
C1[C@H]([C@H](CSC1)C#N)C,4.939020800442085,-0.5554990611693937,0.0,H11C7SN
[C@@H]1(C[C@H](CSC1)C#C)C,4.80795590475609,-0.6285988139083201,0.0,H12C8S
c1cc(ccn1)c1cc(ncc1N)N,3.5858120582030097,0.8184103141262313,0.0,H5C5N2
c1cc(ccn1)c1ccnc(c1N)C,4.276489158400727,0.7241494001496904,0.0,H11C11N3
c1(cc(ccn1)c1ccnc(c1)NC(=O)C)NC(=O)C,5.093474947244976,1.1346665739125457,0.0,H7C7N2O
C1CC(CSC1)(CC)CC,4.651442131025396,-0.90097317701875,0.0,H18C9S
[C@@H]1(CC[C@H](SC1)C=C)C=C,4.753320659665041,-0.6550365971765131,0.0,H14C9S
c1cc(ccn1)c1cc(nc(c1)NC(=O)C)NC(=O)C,4.867001883872581,1.237170150755992,0.0,H7C7N2O
C1C[C@](CSC1)(N(C)C)C,3.7798655278325897,-0.9140275908051988,0.0,H17C8SN
C1=NC=CC(=O)[C]1c1ccncc1C.[N]=O,5.001203628978692,3.861186324001756,0.0,H9C11N3O2
[C@@H]1(C[C@H](CSC1)C=C)C,4.644638743554969,-0.6084019125504709,0.0,H14C8S
c1cc(ccn1)c1c(cncc1CC)CC,5.386667300668341,0.6184360038401793,0.0,H8C7N
C=Cc1cc(C)cs1,4.331006858470209,0.4455187643739919,0.0,H8C7S
c1(c(c2c(cc1)nccn2)C)C#C,5.051140172852319,1.3689461397749256,0.0,H8C11N2
Cc1cscc1NC,3.6713067024153134,-0.739652591246704,0.0,H9C6SN
c1c(c2c(cc1N(C)C)nccn2)N(C)C,3.619890281040716,0.932309623965557,0.0,H4C3N
Cc1cscc1c1ccccc1,4.537180757395253,0.0932771419807978,0.0,H10C11S
Cc1cc(cs1)NC,3.5939054312599183,-0.6351207540377799,0.0,H9C6SN
c1(cc(ccn1)c1ccnc(c1)F)F,5.972099856696877,1.3596514494289296,0.0,H3C5NF
c1cc(cc(n1)C(Cl)(Cl)Cl)c1ccnc(c1)C(Cl)(Cl)Cl,6.168725272853044,1.547698163901805,0.0,H3C6NCl3
C1[C@H]([C@H](CSC1)C)C(=O)O,4.537134397358022,-0.4062475513623211,0.0,H12C7SO2
C1C(CCSC1)(C#C)C#C,4.888219987647608,0.141495904661133,0.0,H10C9S
Cc1ccsc1c1ccccc1,4.334171466221596,0.3376578810253705,0.0,H10C11S
c1cc(ccn1)c1c(cnc(c1)c1ccccc1)C,4.8061903675785285,0.9101698978352945,0.0,H14C17N2
C1[C@H]([C@H](CSC1)F)F,4.988618622451758,-0.779876627575868,0.0,H8C5SF2
C1C(CCSC1)(F)F,4.976299484752962,-0.9259682317628176,0.0,H8C5SF2
[C@@H]1(CC[C@H](SC1)O)O,4.745840612152824,-0.3243055873303091,0.0,H10C5SO2
c1ccc(cc1)c1cc(c2ccccc2)sc1,4.264903533484903,0.5447202996525449,0.0,H12C16S
C1[C@H](C[C@H](SC1)C(Cl)(Cl)Cl)C(Cl)(Cl)Cl,5.357903409394202,2.269494586371002,0.0,H8C7SCl6
c1(cc2c(cc1)C(=O)c1c(C2=O)cc(cc1)C(Cl)(Cl)Cl)C(Cl)(Cl)Cl,6.150614502310054,2.540922028676141,0.0,H3C8Cl3O
c1(cc(cs1)C(=O)O)C(=O)O,5.79317984582085,1.23520651743238,0.0,H4C6SO4
C1C(CCSC1)(CC)CC,4.682476817722636,-0.9710160382768662,0.0,H18C9S
C1CC[C@H](S[C@H]1C)C(=O)O,4.933607895641762,0.9684804648073624,0.0,H12C7SO2
c1cc(ccn1)c1ccnc(c1C=C)C=C,4.864705931520438,0.9551787621327096,0.0,H6C7N
c1cc(ccn1)c1c(cncc1NC)C,4.119721034423128,0.6953751522283711,0.0,H13(C4N)3
C1C[C@](CSC1)(O)C,4.808954486352013,-0.8808909471576043,0.0,H12C6SO
c1cc2c(cc1)C(=O)c1c(C2=O)c(cc(c1)C(Cl)(Cl)Cl)C(Cl)(Cl)Cl,5.979511451246799,2.434221378885559,0.0,H3C8Cl3O
c1cc([c]cn1)c1c(cnc(c1)N(=O)=O)N(O)[O],3.6182404575571128,3.9675861601259386,0.0,H3C5(NO)2
C1C(CCSC1)(C)OC,4.6784505642222936,-0.7648370943628833,0.0,H14C7SO
c1cc(ccn1)c1c(cncc1C)C(=O)O,5.83649189257776,1.2201677434146403,0.0,H5C6NO
C1C(CCSC1)(C)CC,4.657264382121502,-0.8633413488154473,0.0,H16C8S
c1cc(ccn1)c1ccnc(c1c1ccccc1)c1ccccc1,6.160751843690377,2.330496717218921,0.0,H8C11N
C1C[C@](CSC1)(C)OC,4.674614621695218,-0.9015587496709484,0.0,H14C7SO
C1C(CCSC1)(C(=O)O)C(=O)O,4.913139612433588,0.4908486495311082,0.0,H10C7SO4
Cc1ccsc1N,3.565578582025046,-0.5119446398915897,0.0,H7C5SN
C1CC[C@H](S[C@H]1C)C#N,5.127272990791971,0.9508009538854822,0.0,H11C7SN
c1cc(c(cn1)F)c1ccncc1C,5.668524352136592,0.9682333065335116,0.0,H9C11N2F
[C@@H]1(CC[C@H](SC1)C#C)C#C,5.005518048311933,0.1202970121208637,0.0,H10C9S
c1cc2c(cc1F)C(=O)c1c(C2=O)cc(cc1)C,5.684041945825447,2.216923191395472,0.0,H9C15O2F
C1C[C@H]([C@H](SC1)C=C)C=C,4.727791385595628,1.3034914498144643,0.0,H14C9S
c1cc(ccn1)c1cc(nc(c1)F)F,5.8535008633058165,1.3458823912347726,0.0,H3C5NF
c1cc(cc(n1)O)c1ccnc(c1)C,5.383584933884412,1.044638050554204,0.0,H10C11N2O
c1cc(c(cn1)C#N)c1ccnc(c1)C#N,6.280386427327903,1.7268329270205869,0.0,H3(C3N)2
c1(cc2c(cc1)ncc(n2)C#C)C,5.325515010777599,1.4727964161716955,0.0,H8C11N2
[C@@H]1(C[C@H](CSC1)N)C,4.453698841285222,-0.8722880572662688,0.0,H13C6SN
C1C[C@](CSC1)(C)NC,4.132062545324152,-0.8250416906652389,0.0,H15C7SN
CCc1ccc(CC)s1,4.412565922962676,-0.4174172720471687,0.0,H12C8S
c1(cc(ccn1)c1ccncc1N(=O)=O)C,5.6508992422073785,2.200473654063535,0.0,H9C11N3O2
C1[C@H]([C@H](CSC1)NC(=O)C)NC(=O)C,5.000595332102966,-0.4278243147877218,0.0,H16C9S(NO)2
c1cc(ccn1)c1cc(ncc1N(=O)=O)N(=O)=O,5.839814639284304,2.908646215551562,0.0,H3C5(NO)2
Cc1c(ccs1)N(C)C,3.507732562347519,-0.40685308084212,0.0,H11C7SN
c1cc(c(cn1)N(=O)=O)c1ccncc1N(=O)=O,6.319090713315381,2.565526439515088,0.0,H3C5(NO)2
c1(cc2c(cc1)C(=O)c1c(C2=O)cc(cc1)C=C)C=C,5.099783122908411,2.256362952107884,0.0,H6C9O
C1[C@H](C[C@H](SC1)C)O,4.532807980527286,-0.5517960489763936,0.0,H12C6SO
[C@@H]1(CC[C@H](SC1)N(C)C)N(C)C,3.820852691098117,-0.8023955661141371,0.0,H20C9SN2
C1C[C@H]([C@H](SC1)C#N)C#N,5.486814480516477,1.331147911235894,0.0,H8C7SN2
C#Cc1cc(C)cs1,4.646379363262531,0.5774894372349082,0.0,H6C7S
Cc1c(ccs1)OC,4.120903447963064,-0.450812132678402,0.0,H8C6SO
C1[C@H]([C@H](CSC1)C#C)C,4.7443796220664805,-0.6187834745491272,0.0,H12C8S
CCc1c(C)ccs1,4.502221628592087,-0.4054027630685595,0.0,H10C7S
c1cc(cc(n1)NC)c1ccncc1NC,4.154178858783416,0.6899212561926107,0.0,H7(C3N)2
[C@@H]1(C[C@H](CSC1)C)C#N,4.966605290473671,-0.5881011725563439,0.0,H11C7SN
C1CC[C@H](S[C@H]1NC)NC,3.9600121244890034,-0.705082865510485,0.0,H16C7SN2
c1(cc(ccn1)c1ccnc(c1)CC)C,5.639851591787737,0.9919741885911209,0.0,H14C13N2
c1cc(c(cn1)C)c1ccnc(c1)NC(=O)C,5.041815748625231,0.9364500645984664,0.0,H13C13N3O
[C@@H]1(C[C@H](CSC1)C(=O)O)C,4.607716484837146,-0.1970225569770263,0.0,H12C7SO2
C1[C@H]([C@H](CSC1)C)C=C,4.74272041337972,-0.5780403021584788,0.0,H14C8S
c1cc(c(cn1)C#C)c1ccncc1C,5.566323730510339,0.9356776966757026,0.0,H10C13N2
c1cc(ccn1)c1c(cnc(c1)C)F,5.649697143946105,1.1231811195408228,0.0,H9C11N2F
C1C[C@H]([C@H](SC1)F)F,5.112064858561643,-0.5967411787736636,0.0,H8C5SF2
[C@@H]1(CC[C@H](SC1)N(=O)=O)N(=O)=O,5.533601992433978,1.7782143572781934,0.0,H8C5S(NO2)2
c1cc(c(cn1)N(=O)=O)c1ccncc1C,5.63041827576817,2.237787781197403,0.0,H9C11N3O2
C1C(CCSC1)(N)N,4.562886636065377,-0.6751995659345993,0.0,H12C5SN2
Cc1cc(cs1)N(C)C,3.4798639881933924,-0.6300378389663819,0.0,H11C7SN
c1(c(c2c(cc1)nccn2)OC)OC,4.276801063444145,1.24392997824325,0.0,H5C5NO
[C@@H]1(C[C@H](CSC1)N(=O)=O)N(=O)=O,5.17969372176376,1.7846743670139404,0.0,H8C5S(NO2)2
C1CC[C@@](SC1)(C#C)C,4.762672488477255,-0.8116977477606269,0.0,H12C8S
C1[C@H]([C@H](CSC1)C)N(=O)=O,4.723363943777803,1.5280360369812116,0.0,H11C6SNO2
c1cc2c(cc1C)C(=O)c1c(C2=O)cc(cc1)c1ccccc1,6.429012520406104,3.557360884431546,0.0,H14C21O2
c1c(c2c(c(c1)N(C)C)nccn2)C,3.55135396988735,1.1655682105480083,0.0,H13C11N3
c1cc2c(cc1)nc(c(n2)CC)CC,5.1412915964225245,1.057209054104169,0.0,H7C6N
Cc1ccc(N(C)C)s1,3.308783353875333,-0.6204229060080251,0.0,H11C7SN
c1(cc(ccn1)c1ccnc(c1)C(=O)O)C(=O)O,6.142895517079159,1.506018800167658,0.0,H4C6NO2
c1c(c(ccn1)c1ccncc1O[N][O])C,5.240054549508932,2.8076065186374763,0.0,H9C11N3O2
C1CC(CSC1)(N(C)C)N(C)C,3.5363810909599125,-0.8318989240236987,0.0,H20C9SN2
[C@@H]1(C[C@H](CSC1)NC(=O)C)C,4.841103871056111,-0.5801603492349385,0.0,H15C8SNO
C1C(CCSC1)(NC(=O)C)NC(=O)C,4.587802799565543,-0.5844700256260693,0.0,H16C9S(NO)2
C1C(CCSC1)(C)O,4.507185540119826,-1.039398675852135,0.0,H12C6SO
C1[C@H]([C@H](CSC1)N)C,4.36136300482176,-0.7404593570739961,0.0,H13C6SN
C1C(CCSC1)(C)C,4.661409345278662,-0.9126071892191248,0.0,H14C7S
c1c2c(ccn1)c1ccncc21.[C][N]C,4.9179556491340914,1.3264927645628632,0.0,H3C4N
c1(cc2c(c(c1)CC)nccn2)CC,4.943051576477592,1.1551321414241102,0.0,H7C6N
C1[C@H](C[C@H](SC1)NC(=O)C)NC(=O)C,4.749675411797943,-0.6772558023207238,0.0,H16C9S(NO)2
c1cc2c(cc1)nc(c(n2)c1ccccc1)C,4.990520094093517,1.1997382663590543,0.0,H12C15N2
c1cc(ccn1)c1cc(nc(c1)C)N(C)C,4.017423216455063,0.8803012461445179,0.0,H15C13N3
C1C[C@H]([C@H](SC1)C)NC,4.089359176401194,-0.9056930160390038,0.0,H15C7SN
c1cc2c(cc1)nc(c(n2)N(C)C)N(C)C,3.8015848217633903,0.6988376185050584,0.0,H4C3N
c1c2c(ccn1)c1ccncc21.[C]=CC,4.904737553437007,1.7952185632908368,0.0,H10C13N2
C1C[C@](CSC1)(N(=O)=O)C,4.816600139621732,1.5983100344506966,0.0,H11C6SNO2
C1[C@H]([C@H](CSC1)N)N,3.825431011876936,-0.5905380363350559,0.0,H12C5SN2
c1(c(c2c(cc1)nccn2)C)CC,4.953560408837438,1.133624524852712,0.0,H12C11N2
c1(cc2c(cc1)nc(cn2)NC)C,4.245909241953632,0.9639988151953732,0.0,H11C10N3
C1C[C@](CSC1)(C)N(C)C,3.876651780681277,-0.8855347902230277,0.0,H17C8SN
C1C[C@](CSC1)(C)c1ccccc1,4.75287210176757,-0.6823060528462519,0.0,H16C12S
[O]n1ccn(cc1)[O],4.776455337397783,1.371025707199442,0.0,H2C2NO
C1C(CCSC1)(N(C)C)C,3.9570489299636393,-0.9558421815039764,0.0,H17C8SN
C1C(CCSC1)(C)C#C,4.8015636568030455,-0.836039712956699,0.0,H12C8S
CN(C)c1ccsc1N(C)C,3.064841028326191,-0.5705924565976601,0.0,H14C8SN2
C=Cc1cc(C)sc1,4.370083382583834,0.2800766417181877,0.0,H8C7S
C1C[C@](CSC1)(C)NC(=O)C,4.868460650782799,-0.8508962115251051,0.0,H15C8SNO
[C@@H]1(CC[C@H](SC1)C(Cl)(Cl)Cl)C(Cl)(Cl)Cl,5.2376198544749055,2.492569241768797,0.0,H8C7SCl6
C1[C@H](C[C@H](SC1)C)C=C,4.735780990756757,-0.6467980241708573,0.0,H14C8S
c1(ccc(s1)N(=O)=O)N(=O)=O,6.523105280082381,3.061162601615797,0.0,H2C4S(NO2)2
C1=NC=C[C]([C@H]1[N]C(=O)C)c1ccncc1C,3.928229761486,3.365758603822178,0.0,H13C13N3O
C1C(CCSC1)(OC)OC,4.517898817049717,-0.705363869305438,0.0,H14C7SO2
C1CC[C@H](S[C@H]1N(C)C)N(C)C,3.9077382152623614,-0.9611971042890216,0.0,H20C9SN2
c1cc2c(cc1)nc(c(n2)c1ccccc1)c1ccccc1,4.808689896458963,1.2899266348300444,0.0,H7C10N
CCc1cscc1CC,4.672148853985709,-0.4873787277269001,0.0,H12C8S
c1cc2c(cc1)C(=O)c1c(C2=O)cc(c(c1)N(C)C)C,4.164377878657978,2.053874489543523,0.0,H15C17NO2
c1cc2c(cc1)C(=O)c1c(C2=O)cc(cc1C(Cl)(Cl)Cl)C(Cl)(Cl)Cl,5.977249181139632,2.4717455996666104,0.0,H3C8Cl3O
c1cc(c(cn1)C)c1ccnc(c1)C(Cl)(Cl)Cl,5.68538891749049,2.747324100500555,0.0,H9C12N2Cl3
[CH][N][CH][C@H]1C=C1c1cc(ncc1C(Cl)(Cl)Cl)C(Cl)(Cl)Cl,3.906876536851633,2.692028206549003,0.0,H3C6NCl3
C1[C@H]([C@H](CSC1)OC)C,4.649705965822795,-0.767786743066972,0.0,H14C7SO
c1cc2c(cc1)C(=O)c1c(C2=O)cc(c(c1)F)C,5.720831785785412,2.208008886261814,0.0,H9C15O2F
c1cc2c(cc1)nc(c(n2)C)C(=O)O,5.509021048701106,1.7103602300754577,0.0,H4C5NO
c1cc2c(cc1)nc(c(n2)C(=O)O)C(=O)O,5.741707804374164,1.9342278388263368,0.0,H3C5NO2
c1(cc2c(cc1)C(=O)c1c(C2=O)cc(cc1)NC)C,4.315819186483713,1.9480929640900289,0.0,H13C16NO2
[C@@H]1(C[C@H](CSC1)C)CC,4.64939228931471,-0.872609962493152,0.0,H16C8S
c1cc2c(cc1)C(=O)c1c(C2=O)cc(c(c1)C#C)C,5.414181188041402,2.237702606843959,0.0,H10C17O2
c1cc2c(cn1)NC[C@@]12CC=NC=C1NC,3.674329288512672,0.1456840087499586,0.0,H7(C3N)2
c1(cc2c(cc1)C(=O)c1c(C2=O)cc(cc1)N(=O)=O)N(=O)=O,6.561143823235033,2.906423829180858,0.0,H3C7NO3
c1cc2c(cc1)[C](c1c(C2=O)cc(cc1N([CH2])C)C)O,2.71548071868674,2.153484715321247,0.0,H15C17NO2
c1cc2c(cc1)[C](c1c(C2=O)cc(cc1[NH]=C)NC)O,2.6187706876458834,1.836074388089037,0.0,H7C8NO
C1CC[C@H](S[C@H]1F)F,5.741431570729764,-0.8291442231187829,0.0,H8C5SF2
C1[C@H]([C@H](CSC1)C)F,4.727604775363579,-0.7552747773319424,0.0,H11C6SF
c1(cc(cs1)C)C(=O)O,5.199200738346553,0.9630091807062856,0.0,H6C6SO2
C1[C@H]([C@H](CSC1)C)c1ccccc1,4.485958410326566,-0.6998826067851041,0.0,H16C12S
c1cc2c(cc1)nc(c(n2)C)NC,4.288926238402928,0.9713928720117112,0.0,H11C10N3
c1cc2c(cc1)C(=O)c1c(C2=O)cc(cc1CC)C,5.458872705019166,2.064758604983217,0.0,H14C17O2
c1cc2c(cc1)nc(c(n2)N)N,4.283854420130956,0.7391336017368304,0.0,H2C2N
CCc1cscc1C,4.711588184758147,-0.5583486699382774,0.0,H10C7S
C1C[C@](CSC1)(C)C#N,4.982204423076473,-0.7641945573945121,0.0,H11C7SN
c1c(c(cs1)C#C)C#C,5.158219746624672,0.354575609258609,0.0,H4C8S
c1cc2c(cc1)C(=O)c1c(C2=O)cc(cc1C#C)C,5.410416346143029,2.1890079578821315,0.0,H10C17O2
C1[C@H]([C@H](CSC1)C)OC,4.775863966000179,-0.8186562754912301,0.0,H14C7SO
c1cc2c(cc1)nc(c(n2)C#C)C#C,5.441998724525183,1.6946406598886825,0.0,H3C6N
c1(cc(ccn1)c1ccnc(c1)C)C#C,5.603307745460915,1.18531042600589,0.0,H10C13N2
C1C[C@H]([C@H](SC1)C(=O)O)C,4.892324237136199,-0.4710198451197356,0.0,H12C7SO2
C1C[C@H]([C@H](SC1)N)C,4.15913768994651,-0.6833052657515508,0.0,H13C6SN
c1cc2c(cc1)C(=O)c1c(C2=O)cc(cc1C=C)C,5.077913954124233,2.1229848710951047,0.0,H12C17O2
C1[C@H]([C@H](CSC1)C)C#N,4.892837634311581,-0.5836516296498302,0.0,H11C7SN
c1cc2c(cc1)nc(c(n2)C)CC,5.220318652529022,1.0402276321779935,0.0,H12C11N2
c1cc2c(cc1)C(=O)c1c(C2=O)cc(cc1C(Cl)(Cl)Cl)C,5.817570209184487,2.2315569947182667,0.0,H9C16Cl3O2
c1cc2c(cc1)C(=O)c1c(C2=O)cc(cc1C)C,5.480565105937421,2.066798699577339,0.0,H6C8O
COc1cc2c(cc1C(=O)O)ONO2,4.261352730887301,0.895466675550415,0.0,H7C8NO5
C#Cc1cc(c2c(c1)ONO2)O,4.4620394651370585,0.508050181620638,0.0,H5C8NO3
CN(C)c1cc(cc2c1ONO2)F,4.0007681597067855,-0.117949679627054,0.0,H9C8N2O2F
C=Cc1cc(C#N)c2c(c1)ONO2,4.622485583158413,1.0318357012598427,0.0,H6C9(NO)2
CCc1cc(c2c(c1)ONO2)C(F)(F)F,4.593251400257577,0.4933323958081019,0.0,H8C9NO2F3
C#Cc1cc2c(cc1N)ONO2,3.860301235643056,0.3998580894691259,0.0,H3C4NO
C#Cc1cc(c2c(c1)ONO2)OC,4.466563828461949,0.5007491578013288,0.0,H7C9NO3
c1c(C#N)c2c(cc1O)ONO2,4.530692638292384,0.9109767697860662,0.0,H4C7N2O3
C#Cc1cc2c(cc1O)ONO2,4.242237438501979,0.4533309077738523,0.0,H5C8NO3
C#Cc1cc(C)c2c(c1)ONO2,4.406318137521884,0.4371131760632125,0.0,H7C9NO2
c1c(c(cc2c1ONO2)N)C(=O)O,4.087133546434052,0.7286988659776399,0.0,H6C7(NO2)2
C=Cc1cc2c(cc1N)ONO2,3.742239484768652,0.3945088592987305,0.0,H4C4NO
C=Cc1cc2c(cc1O)ONO2,4.059697184296601,0.4663572693440074,0.0,H7C8NO3
C#Cc1cc(c2c(c1)ONO2)N,4.229696811020039,0.4067088029765728,0.0,H3C4NO
C#Cc1cc(c2c(c1)ONO2)C(=O)O,4.651786104686471,1.16288807427336,0.0,H5C9NO4
CCc1cc2c(cc1NC)ONO2,3.546361053753208,-0.4543761164699389,0.0,H12C9(NO)2
C#Cc1cc(C#N)c2c(c1)ONO2,4.796498382869322,1.068639579572482,0.0,H4C9(NO)2
COc1cc2c(cc1N)ONO2,3.4273728477688565,-0.1475567265100834,0.0,H8C7N2O3
CN(C)c1cc2c(cc1OC)ONO2,3.375252228431782,-0.176700978502049,0.0,H12C9N2O3
Cc1cc(c2c(c1)ONO2)N,4.061776626549181,-0.6191969107116164,0.0,H8C7(NO)2
Cc1cc(c2c(c1)ONO2)O,4.319453342990164,-0.1382121821847248,0.0,H7C7NO3
C=Cc1cc(CC)c2c(c1)ONO2,4.229146041723288,0.3939508027993725,0.0,H11C10NO2
COCCOc1cc2c(cc1C#N)ONO2,4.599761470782687,0.7759788141425816,0.0,H5C5NO2
COCCOCCOc1cc(cc2c1ONO2)OC,4.092649582385638,-0.1456962433789157,0.0,H17C12NO6
COCCOCCOCCOc1cc2c(cc1C#N)ONO2,4.355398149747634,0.7452491371273937,0.0,H9C7NO3
COc1cc(c2c(c1)ONO2)C(=O)O,4.377993625750241,1.0357076335581952,0.0,H7C8NO5
COc1cc2c(cc1C#N)ONO2,4.598141318592388,0.7850923011625128,0.0,H6C8N2O3
COc1cc(C#N)c2c(c1)ONO2,4.442509686230187,0.8528011821559631,0.0,H6C8N2O3
Cc1cc2c(cc1O)ONO2,4.049623081000027,-0.1599238215516378,0.0,H7C7NO3
COCCOc1cc(cc2c1ONO2)OC,4.174883788518491,-0.1583583479208754,0.0,H13C10NO5
CNc1cc2c(cc1Cl)ONO2,3.773536198042712,1.3912988085954567,0.0,H7C7N2ClO2
Cc1cc(cc2c1ONO2)OC,4.032904597237211,-0.172571825153136,0.0,H9C8NO3
CN(C)c1cc(cc2c1ONO2)OC,3.817807086894027,-0.8124619903595884,0.0,H12C9N2O3
Cc1cc2c(cc1C(=O)O)ONO2,4.597225543957029,0.8219608854247782,0.0,H7C8NO4
c1c(c(cc2c1ONO2)N(=O)=O)N,4.433076217826601,1.8293644907731503,0.0,H5C6N3O4
Cc1cc(c2ccccc2)c2c(c1)ONO2,4.304697583685629,0.4255989102799504,0.0,H11C13NO2
c1ccc(cc1)c1cc2c(cc1O)ONO2,4.092747195061383,0.2553694317190094,0.0,H9C12NO3
CNc1cc(c2c(c1)ONO2)O,3.6435474608821097,-0.4407984332159684,0.0,H8C7N2O3
c1c(cc2c(c1C(=O)O)ONO2)N(=O)=O,5.065234722734749,2.1706680402727216,0.0,H4C7(NO3)2
c1c(C#N)c(cc2c1ONO2)N(=O)=O,5.197408310888568,2.4696294383662463,0.0,H3C7N3O4
c1ccc(cc1)c1cc2c(cc1C(Cl)(Cl)Cl)ONO2,4.676179779673111,3.2203683295243537,0.0,H8C13NCl3O2
COc1cc(c2ccccc2)c2c(c1)ONO2,4.099557877905317,0.4404342846442888,0.0,H11C13NO3
CNc1cc2c(cc1C(=O)O)ONO2,3.973401091357664,0.7189485427748878,0.0,H4C4NO2
C=Cc1cc(c2c(c1)ONO2)C(=O)O,4.481271554222621,1.1094598227697134,0.0,H7C9NO4
c1ccc(cc1)c1cc(C#N)c2c(c1)ONO2,4.614667379778984,0.9016750316892286,0.0,H8C13(NO)2
c1ccc(cc1)c1cc2c(cc1N)ONO2,3.724639156241756,0.1357825698556554,0.0,H5C6NO
Cc1cc2c(cc1C#N)ONO2,4.673857334326021,0.7162467408012163,0.0,H3C4NO
c1c(C#N)c2c(cc1N(=O)=O)ONO2,5.206547311301256,2.278339341910032,0.0,H3C7N3O4
Cc1cc(c2c(c1)ONO2)N(=O)=O,4.741922823226195,2.1195646096726706,0.0,H6C7(NO2)2
c1c(cc2c(c1O)ONO2)N(=O)=O,4.879209539254225,2.116848807437782,0.0,H4C6N2O5
Cc1cc2c(cc1N)ONO2,3.677226528092069,-0.3431766901998343,0.0,H8C7(NO)2
Cc1cc(C#N)c2c(c1)ONO2,4.660497078195112,0.8631513177293528,0.0,H3C4NO
c1ccc(cc1)c1cc2c(cc1C#N)ONO2,4.6953362973159525,0.8606253965277575,0.0,H8C13(NO)2
CC(C)(C)c1cc2c(cc1O)ONO2,4.050554738919891,-0.2008413753777858,0.0,H13C10NO3
COCCOCCOCCOc1cc2c(cc1O)ONO2,4.013943704967096,-0.0845030194017453,0.0,H19C13NO7
c1c(cc2c(c1N)ONO2)N(=O)=O,4.591417102643026,2.0355826190767403,0.0,H5C6N3O4
c1ccc(cc1)c1cc(c2c(c1)ONO2)N,4.099540794597123,0.2733710220250942,0.0,H5C6NO
CNc1cc2c(cc1OC)ONO2,3.297919176214782,-0.2167188532279396,0.0,H10C8N2O3
CCc1cc(c2c(c1)ONO2)O,4.317132973863044,-0.4441719971822748,0.0,H9C8NO3
c1c(cc2c(c1C(F)(F)F)ONO2)N(=O)=O,5.159178273062571,2.2467631813284243,0.0,H3C7N2O4F3
CNc1cc(C#N)c2c(c1)ONO2,3.932544880151545,0.77653443522795,0.0,H7C8N3O2
c1ccc(cc1)c1cc(cc2c1ONO2)N(=O)=O,4.883158286565594,2.0845212398686277,0.0,H4C6NO2
c1ccc(cc1)c1cc2c(cc1C(=O)O)ONO2,4.57322293464822,0.9589973383495818,0.0,H9C13NO4
c1ccc(cc1)c1cc(c2c(c1)ONO2)O,4.300176869409915,0.3640185798809399,0.0,H9C12NO3
c1c(c(cc2c1ONO2)N(=O)=O)C(=O)O,5.050242012146191,2.2438555878230546,0.0,H4C7(NO3)2
CNc1cc(c2c(c1)ONO2)C(=O)O,3.794840931981162,0.9203795655172144,0.0,H4C4NO2
Cc1cc(c2c(c1)ONO2)C(=O)O,4.504361975364736,0.9920970615909028,0.0,H7C8NO4
C=Cc1cc(C#C)c2c(c1)ONO2,4.412469872218571,0.7155387005910598,0.0,H7C10NO2
CC(C)(C)c1cc(c2c(c1)ONO2)N,4.094205540198891,-0.6772844994469778,0.0,H7C5NO
COCCOCCOc1cc(c2c(c1)ONO2)N,3.855749437801569,-0.649166464931477,0.0,H16C11N2O5
c1c(c(cc2c1ONO2)F)C(=O)O,4.77283576619593,1.000956331697671,0.0,H4C7NO4F
C#Cc1cc(c2c(c1)ONO2)C(F)(F)F,4.737546851743536,0.7987534607760609,0.0,H4C9NO2F3
C#Cc1cc2c(cc1C#N)ONO2,4.808778091273416,1.079225803832378,0.0,H4C9(NO)2
CN(C)c1cc2c(cc1Cl)ONO2,3.8729025526750775,0.0584625328352559,0.0,H9C8N2ClO2
CCc1cc(C)c2c(c1)ONO2,4.24431352014617,-0.3022356883269821,0.0,H11C9NO2
CNc1cc(c2c(c1)ONO2)OCCOCCOCCOC,3.686026975353889,-0.5418936740083153,0.0,H11C7NO3
CC(C)(C)c1cc(c2c(c1)ONO2)O,4.307371113039698,-0.3878515075542963,0.0,H13C10NO3
C#Cc1cc(c2c(c1)ONO2)F,4.662544043659727,0.6418791008378322,0.0,H4C8NO2F
CCc1cc(cc2c1ONO2)C(C)(C)C,4.225826103230792,-0.5370032114427885,0.0,H17C12NO2
CC(C)(C)c1cc(c2ccccc2)c2c(c1)ONO2,4.292662807672604,0.3763795224273054,0.0,H17C16NO2
CCc1cc(C#N)c2c(c1)ONO2,4.663125199907517,0.848146375623037,0.0,H8C9(NO)2
CCc1cc(c2c(c1)ONO2)C(=O)O,4.5063207841099935,0.9816309238936812,0.0,H9C9NO4
c1c(cc2c(c1N)ONO2)C(F)(F)F,4.448608157361013,0.3073683263697604,0.0,H5C7N2O2F3
COCCOCCOc1cc2c(cc1N)ONO2,3.4966348593130534,-0.2026295197632861,0.0,H16C11N2O5
CC(C)(C)c1cc(c2c(c1)ONO2)N(=O)=O,4.716324342445295,2.1069447154310184,0.0,H6C5NO2
c1c(C#N)c(cc2c1ONO2)C(F)(F)F,5.038289504301792,1.2003591838816647,0.0,H3C8N2O2F3
COCCOCCOCCOc1cc(cc2c1ONO2)O,4.216736978561675,-0.4501287242150282,0.0,H19C13NO7
CC(C)(C)c1cc(c2c(c1)ONO2)F,4.501671879724745,0.139182281238027,0.0,H12C10NO2F
c1cc2c(cc1C(Br)(Br)Br)ON(C(Cl)(Cl)Cl)O2,4.887176289566559,2.8186945670400747,0.0,H3C8Br3NCl3O2
c1c(cc2c(c1C(=O)O)ONO2)C(Cl)(Cl)Cl,4.841348365343583,2.749470060976455,0.0,H4C8NCl3O4
c1c(c(cc2c1ONO2)N)C(F)(F)F,4.132480174755619,0.32396371672221,0.0,H5C7N2O2F3
CC(C)(C)c1cc(c2c(c1)ONO2)OCCOCCOC,4.350099842967756,-0.2685824202293587,0.0,H23C15NO5
CN(C)c1cc2c(cc1O)ONO2,3.50914015281669,-0.1985086577282344,0.0,H10C8N2O3
c1c(C#N)c2c(cc1C(F)(F)F)ONO2,5.046586208985536,1.1991582040114737,0.0,H3C8N2O2F3
CC(C)(C)c1cc(c2c(c1)ONO2)Cl,4.481366092009557,1.2134438648841752,0.0,H12C10NClO2
COCCOc1cc2c(cc1C(=O)O)ONO2,4.280742017419106,0.8662863303776249,0.0,H11C10NO6
C=Cc1cc(c2c(c1)ONO2)N(=O)=O,4.705149209419323,2.1640247591363733,0.0,H3C4NO2