smiles,IE,EA,charge,formula_pretty
C#Cc1ccc(OCCOCCOCCOC)s1,4.182947675313335,0.52600204313203,0.0,H18C13SO4
c1csc(c1N(=O)=O)C(Cl)(Cl)Cl,5.909661594903445,2.8356241023226176,0.0,H2C5SNCl3O2
c1ccc(cc1)c1cc(cs1)F,4.493626567416504,0.6359227438821109,0.0,H7C10SF
CC(C)(C)c1ccsc1C#N,5.307767270028853,0.7653499224303233,0.0,H11C9SN
c1csc(C#N)c1N(=O)=O,6.050911662588623,2.521063381152635,0.0,H2C5S(NO)2
c1c(Cl)ncc(Cl)n1,5.9515243306974295,1.2978529408770556,0.0,HC2NCl
CCc1cscc1OC,4.414441266229551,-0.6262690813477092,0.0,H10C7SO
CC(=O)c1c(ccs1)C(=O)O,5.406588518054923,1.6278090113206418,0.0,H6C7SO3
C#Cc1cscc1C(C)(C)C,4.850810819306934,0.2490443496259105,0.0,H12C10S
COCCOCCOc1c(ccs1)C(F)(F)F,4.615794464408827,0.3355046088487143,0.0,H13C10S(OF)3
COc1cc(F)sc1,4.36780439925642,0.3194044765637955,0.0,H5C5SOF
CN(C)c1cc(cs1)Cl,3.659914583096543,-0.2103971507916866,0.0,H8C6SNCl
CN(C)C1=C(Cl)S[C](C2=[S]C=CS2)S1,3.244455900939647,1.4974062066990883,0.0,H8C8S4NCl
C1=C[S]=C([C]2SC(=C(Cl)S2)C(=O)O)S1,3.465546743079904,1.6954670260689455,0.0,H3C7S4ClO2
COCCOc1cscc1N(=O)=O,5.038049499898625,1.950297644014063,0.0,H9C7SNO4
CCC1=C(Cl)S[C](C2=[S]C=CS2)S1,3.282672411981912,1.4804071980557638,0.0,H7C8S4Cl
C#CC1=C(C#N)S[C](C2=[S]C=CS2)S1,3.534107577122632,1.578719190476113,0.0,H3C9S4N
CCC1=CSC(=[S]1)C1=[S]C(=CS1)C(=O)C,3.3156653305428336,1.2257050722706482,0.0,H10C10S4O
CC(=O)C1=C(NC)S[C](C2=[S]C=CS2)S1,3.2438801352705924,0.7528081901706174,0.0,H9C9S4NO
C=Cc1ccc2c(c1)[nH]sn2C=C,3.3850316460426257,2.7312966933655844,0.0,H10C10SN2
c1cc2c(cc1C(=O)O)[nH]s[nH]2,3.522371182081406,0.8939797829531018,0.0,H6C7S(NO)2
c1c2c3c4c5c1c(=O)n(c(=O)c5cc1c4c4c5c3c(cc3c5c(cc4[nH][nH]1)c(=O)n(c3=O)C)[nH][nH]2)C,3.2874250543260133,2.453101845183119,0.0,H7C13N3O2
c1c2c3c4c5c1c(=O)n(c(=O)c5cc1c4c4c5c3c(cc3c5c(cc4cc1c1ccccc1C)c(=O)n(c3=O)C)c(c2)c1c(cccc1)C)C,4.600466746314487,2.169362361871754,0.0,H13C22NO2
c1cc2c(cc1Cl)[n]s[nH]2.[Cl],4.287627945182612,4.04596551181894,0.0,H4C6S(NCl)2
c1csc(c1N)C(=O)O,4.345263648070249,0.6547761974448805,0.0,H5C5SNO2
COCCOCCOc1ccsc1Cl,4.438776967371814,1.2751705571514322,0.0,H13C9SClO3
COCCOc1ccc(c2ccccc2)s1,3.8257668928687054,0.4423463823273779,0.0,H14C13SO2
CC(=O)c1cccs1,5.342331648725667,1.107788113165589,0.0,H6C6SO
c1cnc(c(C#N)n1)C(=O)O,6.28013433834858,1.9095447136201984,0.0,H3C6N3O2
COCCOCCOCCOc1c(ccs1)F,4.379004923228058,0.0648414662588039,0.0,H17C11SO4F
c1cc(O)sc1N(=O)=O,5.1864996888776655,1.999684994132258,0.0,H3C4SNO3
CC(=O)c1cc2c(cc1N(C)C)[nH]s[nH]2,3.3292639964871342,0.8162665713767638,0.0,H13C10SN3O
C1=Cc2c(=C[C]1C(Cl)(Cl)Cl)[nH]sn2.[Cl],4.376260453800205,4.040291919250739,0.0,H4C7S(NCl2)2
COc1cscc1N(=O)=O,5.0514245045975255,1.9731608582638729,0.0,H5C5SNO3
COCCOc1ccsc1N(=O)=O,5.313662376878346,2.0339669839791896,0.0,H9C7SNO4
c1ccc(cc1)c1c(ccs1)F,4.471889401048975,0.5169117157180154,0.0,H7C10SF
COCCOc1cscc1C(F)(F)F,4.629700153685553,0.2104962896351936,0.0,H9C8SO2F3
CN(C)c1cc(C(=O)O)sc1,3.828589995029324,0.9387908667500596,0.0,H9C7SNO2
COCCOCCOCCOc1ccsc1F,4.49320881824824,0.3331885309540667,0.0,H17C11SO4F
C#Cc1cscc1N(C)C,3.800467024369573,0.3116926207199868,0.0,H9C8SN
C#Cc1c(ccs1)C(C)(C)C,4.608799639414064,0.5529439281614033,0.0,H12C10S
c1c(c(cs1)N)C(=O)O,4.067072633964562,0.71503083820935,0.0,H5C5SNO2
CCc1c(ccs1)Cl,4.813582541371579,1.1201397113341955,0.0,H7C6SCl
c1c(csc1C#N)O,4.951055565577553,0.8844513359341364,0.0,H3C5SNO
COCCOc1cscc1N,3.772778458963876,-0.5595225908095016,0.0,H11C7SNO2
CC(=O)c1ccc(C(Cl)(Cl)Cl)s1,5.556048317399108,2.929255812917836,0.0,H5C7SCl3O
C#Cc1c(ccs1)O,4.454641231373534,0.495407546824572,0.0,H4C6SO
COn1c2cccc(c2[nH]s1)O,3.902563322995411,1.6513321397229448,0.0,H8C7S(NO)2
CC(=O)c1cc(C(=O)C)sc1,5.589982368879282,1.253530527266412,0.0,H8C8SO2
C#Cc1c(C#C)nccn1,5.5586936720806985,1.264607802717001,0.0,H2C4N
CC(=O)c1c(ccs1)NC,4.098602241317712,0.7169005568808644,0.0,H9C7SNO
c1cnc(c(C#N)n1)O,5.958454400771734,1.570729465583645,0.0,H3C5N3O
COCCOCCOCCOc1c(ccs1)N(=O)=O,4.998482033444452,1.8782988312101223,0.0,H17C11SNO6
CC(C)(C)c1ccc(c2c1ONO2)Cl,4.540394476252549,1.1884492319200946,0.0,H12C10NClO2
c1cc(c2c(c1)ONO2)C(F)(F)F,4.714590920147748,0.5289862938276202,0.0,H4C7NO2F3
c1ccc(cc1)c1ccc2c(c1N(=O)=O)ONO2,4.677068672184396,2.0713875212291897,0.0,H4C6NO2
CC(C)(C)N1Oc2ccc(cc2O1)NC,3.3831002228340368,-0.5974681553838308,0.0,H16C11(NO)2
CC(C)(C)c1cc(cc2c1ONO2)Cl,4.443295172755461,1.1781727956637045,0.0,H12C10NClO2
CC(C)(C)c1c(ccc2c1ONO2)C#N,4.677725764520437,0.6906609949452105,0.0,H12C11(NO)2
CC(C)(C)c1cc(cc2c1ONO2)F,4.416882924653327,-0.0510768765620013,0.0,H12C10NO2F
c1cc2c(c(c1C#N)C(F)(F)F)ONO2,5.038396409666893,1.241370815621485,0.0,H3C8N2O2F3
c1c(cc2c(c1N(=O)=O)ONO2)C(Br)(Br)Br,5.037721798662096,2.8472624520596583,0.0,H3C7Br3(NO2)2
CCc1c(ccc2c1ONO2)OCCOCCOC,4.147131053222983,-0.2916652357875136,0.0,H19C13NO5
COCCOCCOCCOc1cccc2c1ON(N(=O)=O)O2,4.442350842496671,3.1862754343106645,0.0,H18C13(NO4)2
c1ccc(cc1)c1c(ccc2c1ONO2)N,3.754963046221383,0.2361589539083071,0.0,H5C6NO
C#Cc1ccc2c(c1)ON(C(C)(C)C)O2,4.177636636327952,0.3856097081894405,0.0,H13C12NO2
COCCOCCOCCON1Oc2cccc(c2O1)C(F)(F)F,4.473196867229126,0.4400745011676918,0.0,H18C14N(O2F)3
C#Cc1ccc(c2c1ONO2)C(C)(C)C,4.484992515046178,0.5181574256581372,0.0,H13C12NO2
COCCOCCOc1ccc2c(c1N)ONO2,4.082563046210998,-0.3154619583277962,0.0,H16C11N2O5
CC(C)(C)c1cccc2c1ON(C(=O)O)O2,4.56739142896331,0.7012332815298579,0.0,H13C11NO4
CC(C)(C)N1Oc2cccc(C#N)c2O1,4.431223236869846,0.7347917778184638,0.0,H12C11(NO)2
COCCOCCOCCOc1c(ccc2c1ONO2)O,4.257759636360424,-0.0445257495033728,0.0,H19C13NO7
COCCOCCOCCOc1cccc2c1ON(O)O2,4.690708498079038,-0.4923718996527895,0.0,H19C13NO7
CON1Oc2cccc(c3ccccc3)c2O1,4.233676173863932,0.4306798906196492,0.0,H11C13NO3
CC(C)(C)c1cc(cc2c1ONO2)N(=O)=O,4.823654397006612,2.041644031023316,0.0,H6C5NO2
COCCOCCOc1ccc2c(c1)ON(C(=O)O)O2,4.265495536184607,0.6049349287983206,0.0,H15C12NO7
CC(C)(C)c1c(ccc2c1ONO2)OCCOCCOCCOC,3.997409518460336,-0.2324766499645192,0.0,H27C17NO6
COCCOCCOCCOc1c(ccc2c1ONO2)N,3.706523550239217,-0.3170219379811896,0.0,H20C13(NO3)2
COCCOCCOCCOc1c(ccc2c1ONO2)C(=O)O,4.624270266254461,0.8614088340451418,0.0,H19C14NO8
CCc1ccc2c(c1C(C)(C)C)ONO2,4.20437350263237,-0.3592698427586582,0.0,H17C12NO2
c1ccc(cc1)c1cccc2c1ON(C(=O)O)O2,4.639186730551591,0.565711270007887,0.0,H9C13NO4
COCCOCCOCCOc1cccc2c1ON(C(F)(F)F)O2,4.789633535766916,3.250377933452546,0.0,H18C14N(O2F)3
Cc1cccc2c1ON(C(C)(C)C)O2,4.032254302308138,-0.5770166289461485,0.0,H15C11NO2
CC(C)(C)c1cccc2c1ON(O)O2,4.654012959168176,1.5668780288957351,0.0,H13C10NO3
CC(C)(C)c1cccc2c1ON(Cl)O2,5.253748330129019,3.7767010479707097,0.0,H12C10NClO2
CC(C)(C)N1Oc2cccc(c2O1)C(F)(F)F,4.365224664824927,0.3536796635577048,0.0,H12C11NO2F3
Cc1ccc2c(c1OCCOCCOCCOC)ONO2,4.420384501854278,-0.1428896340352365,0.0,H21C14NO6
COCCOCCOCCOc1cccc2c1ON(C(=O)O)O2,4.653880815245065,0.7201762605560362,0.0,H19C14NO8
COCCOCCOc1c(ccc2c1ONO2)O,4.271461180390906,-0.0396548600969253,0.0,H15C11NO6
CC(C)(C)c1cc(cc2c1ONO2)C(Br)(Br)Br,4.534408290195279,2.8074154647707474,0.0,H12C11Br3NO2
CON1Oc2ccc(cc2O1)c1ccccc1,4.094347662530344,0.3136788694260759,0.0,H11C13NO3
c1cc2c(c(c1N)C(F)(F)F)ONO2,4.018387149798945,0.4541674510233862,0.0,H5C7N2O2F3
CC(C)(C)N1Oc2ccc(cc2O1)C(Cl)(Cl)Cl,4.326308652505395,2.7986189278104576,0.0,H12C11NCl3O2
COCCOc1ccc2c(c1N)ONO2,4.104297937703086,-0.2343187137143103,0.0,H12C9(NO2)2
CN(C)c1ccc2c(c1)ON(OC)O2,3.1974893299498945,-0.4215070015401578,0.0,H12C9N2O3
Cc1cc(c2c(c1)ONO2)OCCOCCOC,4.246578380768915,-0.1641799377743154,0.0,H17C12NO5
COCCOCCOCCOc1cc(cc2c1ONO2)C(Cl)(Cl)Cl,4.6837117818882685,2.661453060247004,0.0,H18C14N(ClO2)3
COCCOCCOc1c(ccc2c1ONO2)C(Cl)(Cl)Cl,4.653244052534864,2.803509273364034,0.0,H14C12NCl3O5
CC(C)(C)c1ccc(c2c1ONO2)OC,4.369214694526454,-0.2488559329452981,0.0,H15C11NO3
Cc1ccc2c(c1OCCOCCOC)ONO2,4.340612738205527,-0.1402808949918834,0.0,H17C12NO5
CC(C)(C)c1ccc(c2c1ONO2)N(=O)=O,4.767876072428043,2.0719158166371927,0.0,H6C5NO2
COCCOCCOCCOc1ccc(c2c1ONO2)C(Cl)(Cl)Cl,4.639380029353196,3.054948547398089,0.0,H18C14N(ClO2)3
CN(C)N1Oc2cccc(c2O1)OCCOCCOCCOC,4.386286871858465,2.9321848979758216,0.0,H24C15(NO3)2
c1c(cc2c(c1N(=O)=O)ONO2)C(F)(F)F,5.148288560239598,2.3076220998496866,0.0,H3C7N2O4F3
COCCOCCOc1cc(c2c(c1)ONO2)OCCOC,4.103039345891011,-0.0808461495529626,0.0,H21C14NO7
CN(C)c1ccc2c(c1OCCOCCOCCOC)ONO2,3.69473888220964,-0.1032916554526308,0.0,H24C15(NO3)2
CC(C)(C)c1cc(cc2c1ONO2)c1ccccc1,4.228887457387463,0.2923675802572689,0.0,H17C16NO2
COCCOCCOc1c(ccc2c1ONO2)C(F)(F)F,4.668302394265629,0.3286577212544217,0.0,H14C12NO5F3
CC(C)(C)c1c(ccc2c1ONO2)C(=O)O,4.50881152370639,0.7750557087616472,0.0,H13C11NO4
COCCOc1c(ccc2c1ONO2)O,4.267316541039326,-0.0332958317980227,0.0,H11C9NO5
CCc1cc2c(cc1Cl)ONO2,4.426184809691767,0.0663744114041038,0.0,H8C8NClO2
CC(=O)c1cc2c(cc1OCCOCCOCCOC)ONO2,4.415812989374535,0.969122898366186,0.0,H21C15NO7
CC(C)(C)N1Oc2cccc(c3ccccc3)c2O1,4.088989887995558,0.3260377357451944,0.0,H17C16NO2
COCCOc1c(ccc2c1ONO2)C(=O)O,4.636491551822109,0.8588571164524184,0.0,H11C10NO6
COCCOc1cc(cc2c1ONO2)N(=O)=O,4.863154972439224,2.0960196577376338,0.0,H10C9(NO3)2
COCCOCCOc1ccc2c(c1)ON(F)O2,4.736172725837241,3.580089150431013,0.0,H14C11NO5F
c1cc2c(cc1Cl)ON(C(=O)O)O2,4.726827852262067,0.7803592564538122,0.0,H4C7NClO4
COCCOc1cccc2c1ON(C(=O)O)O2,4.659791329185827,0.7186512039857917,0.0,H11C10NO6
COCCON1Oc2ccc(cc2O1)Cl,4.297220545753225,0.0227071418063133,0.0,H10C9NClO4
CCN1Oc2ccc(cc2O1)Cl,4.29171618893597,1.175983977254509,0.0,H8C8NClO2
COCCOc1ccc(c2ccccc2)c2c1ONO2,4.447335178888897,0.3320768261924969,0.0,H15C15NO4
c1cc2c(cc1Cl)ON(N(=O)=O)O2,4.519451416983065,3.3020870241467493,0.0,H3C6N2ClO4
Cc1ccc(c2c1ONO2)OCCOCCOC,4.395645693993719,-0.1652518050672369,0.0,H17C12NO5
CC(=O)c1ccc2c(c1)ON(C(=O)O)O2,4.827990925588528,1.089795393772511,0.0,H7C9NO5
c1cc2c(c(c1Cl)O)ONO2,4.578131802989082,1.2195365318271798,0.0,H4C6NClO3
c1cc2c(cc1Cl)ON(N)O2,3.3897491149524286,1.312192703420442,0.0,H5C6N2ClO2
C#Cc1ccc(c2c1ONO2)OCCOCCOCCOC,4.6821926682874615,0.4693745546624996,0.0,H19C15NO6
c1cc(c2c(c1)ON(C(=O)O)O2)C(Cl)(Cl)Cl,4.861684847493597,3.3175543148769067,0.0,H4C8NCl3O4
COCCOc1ccc(c2c1ONO2)N(=O)=O,4.830358947286731,1.9954808707021583,0.0,H10C9(NO3)2
C=Cc1cc(cc2c1ONO2)OCCOCCOCCOC,4.128531190706417,0.5576632746575343,0.0,H21C15NO6
CC(C)(C)c1ccc2c(c1C(C)(C)C)ONO2,4.209558767882845,-0.1750503794959512,0.0,H21C14NO2
COCCOCCOc1ccc(c2ccccc2)c2c1ONO2,4.429951763193094,0.3355489770052373,0.0,H19C17NO5
COCCOCCOc1cc(c2c(c1)ONO2)OC,4.093472389323869,-0.098346002762264,0.0,H17C12NO6
CC(C)(C)N1Oc2cccc(c2O1)N(C)C,3.695157123902027,-0.8207261121264309,0.0,H9C6NO
COCCOc1c(ccc2c1ONO2)C#N,4.736392060474463,0.6605583416836454,0.0,H5C5NO2
CN1Oc2ccc(cc2O1)OCCOC,3.9182930294278777,-0.3384311418652941,0.0,H13C10NO4
c1cc2c(c(c1C(F)(F)F)C(Cl)(Cl)Cl)ONO2,4.933900151337729,2.919859433628153,0.0,H3C8NCl3O2F3
CNN1Oc2cccc(c2O1)OCCOCCOC,3.197637544917234,3.736416428216762,0.0,H18C12N2O5
COCCOc1ccc2c(c1O)ONO2,4.251797344602528,-0.0163668679801047,0.0,H11C9NO5
COCCOCCOc1ccc(c2c1ONO2)OCCOC,4.267875977167568,-0.0694776687618285,0.0,H21C14NO7
COCCOCCOCCOc1cc(c2c(c1)ONO2)F,4.272440251419175,-0.044790442798694,0.0,H18C13NO6F
c1ccc(cc1)c1cc(cc2c1ONO2)C(F)(F)F,4.729421216872288,0.6757053380984872,0.0,H8C13NO2F3
c1cc(c2c(c1)ON(C(F)(F)F)O2)C(Br)(Br)Br,5.018915208545513,2.8111630465078634,0.0,H3C8Br3NO2F3
Cc1ccc(c2c1ONO2)OCCOC,4.418527931718563,-0.2098679301874653,0.0,H13C10NO4
CC(C)(C)c1c(ccc2c1ONO2)NC,3.590569125118782,-0.2575075502631079,0.0,H16C11(NO)2
c1c(c(cc2c1ONO2)Cl)Cl,4.618278292314789,1.337511026687571,0.0,H3C6N(ClO)2
C=Cc1cc2c(cc1C=C)ONO2,4.211692662836503,0.5897240999162023,0.0,H9C10NO2
CC(C)(C)c1cccc2c1ON(C(Cl)(Cl)Cl)O2,4.626220644918794,2.25401457430562,0.0,H12C11NCl3O2
CC(C)(C)c1ccc(c2ccccc2)c2c1ONO2,4.356629151936067,0.353116409687209,0.0,H17C16NO2
c1cc2c(cc1Cl)ON(C(Br)(Br)Br)O2,4.758127259463072,2.525546007638332,0.0,H3C7Br3NClO2
COCCOc1c(ccc2c1ONO2)c1ccccc1,4.373988235217984,0.2327055789515726,0.0,H15C15NO4
c1cc(c2c(c1)ON(C(Cl)(Cl)Cl)O2)C(Br)(Br)Br,4.925566161627648,2.8081139456131496,0.0,H3C8Br3NCl3O2
CN(C)c1ccc2c(c1)ON(OCCOCCOC)O2,3.237101921041904,-0.4900428038330573,0.0,H20C13N2O5
c1cc2c(cc1Cl)ONO2,4.52679943213443,0.115721692761872,0.0,H4C6NClO2
c1c(c(cc2c1ONO2)Cl)C(Cl)(Cl)Cl,4.767495902176597,2.6714571840435384,0.0,H3C7N(Cl2O)2
CN(C)c1ccc2c(c1)ON(C(=O)O)O2,3.7236017957053273,0.6486068325008092,0.0,H10C9(NO2)2
COCCOCCOCCOc1ccc2c(c1)ON(F)O2,4.719935758393694,3.5420900773948234,0.0,H18C13NO6F
COCCOc1cc(cc2c1ONO2)C(Cl)(Cl)Cl,4.670884106957237,3.070545413299988,0.0,H10C10NCl3O4
COCCOCCOc1ccc2c(c1Cl)ONO2,4.475398747106373,1.3729912045033417,0.0,H14C11NClO5
COCCOCCOc1ccc(c2c1ONO2)N(=O)=O,4.832245420011168,1.990609045218298,0.0,H14C11N2O7
Cc1cc(c2c(c1)ONO2)OCCOCCOCCOC,4.333696510567824,-0.1627462107739119,0.0,H21C14NO6
C#Cc1c(ccc2c1ONO2)OCCOCCOC,4.302052743305103,0.6076149997585163,0.0,H15C13NO5
C=Cc1cc2c(cc1C(F)(F)F)ONO2,4.607591560097353,0.7849008609133308,0.0,H6C9NO2F3
COCCOCCOCCOc1cc(c2c(c1)ONO2)Cl,4.360328517804737,1.230998053784424,0.0,H18C13NClO6
c1ccc(cc1)N1Oc2cccc(c2O1)C(=O)O,4.31545039603734,0.9658610942802626,0.0,H9C13NO4
C=Cc1ccc2c(c1)ON(C(Br)(Br)Br)O2,4.469239406834822,5.091601193120004,0.0,H6C9Br3NO2
CN(C)c1cccc2c1ON(OCCOCCOC)O2,3.952436820809089,-0.6315088210671091,0.0,H20C13N2O5
C=Cc1ccc2c(c1c1ccccc1)ONO2,4.270087642247381,0.4810567990440177,0.0,H11C14NO2
COCCOc1ccc2c(c1C(=O)O)ONO2,4.192888393846806,1.003498560681328,0.0,H11C10NO6
COCCOc1cccc2c1ON(C(Cl)(Cl)Cl)O2,4.640618979961436,2.2661368621353177,0.0,H10C10NCl3O4
COCCOCCOCCOc1cc(cc2c1ONO2)C(F)(F)F,4.743764827109407,0.4312696429420612,0.0,H18C14N(O2F)3
c1ccc(cc1)N1Oc2cccc(c2O1)N(=O)=O,4.564756169705651,2.034259250563628,0.0,H4C6NO2
CN(C)N1Oc2ccc(cc2O1)OCCOC,4.064823553225869,-0.2638740018286625,0.0,H16C11(NO2)2
CCc1cc2c(cc1c1ccccc1)ONO2,4.272381972803123,0.1274110420286889,0.0,H13C14NO2
COCCOc1cc(c2c(c1)ONO2)OCCOC,4.160187573162693,-0.1087206068063095,0.0,H17C12NO6
Cc1cc2c(cc1Cl)ONO2,4.418570125695259,1.1864987144814223,0.0,H6C7NClO2
COCCOCCOc1c(ccc2c1ONO2)N,3.6687583155013272,-0.5304893258857191,0.0,H16C11N2O5
COCCOCCOc1ccc2c(c1C#N)ONO2,4.454034836564096,0.8910305533041538,0.0,H14C12N2O5
COCCOc1cc2c(cc1Cl)ONO2,4.448443022357969,0.1682527005847078,0.0,H10C9NClO4
CC(C)(C)c1ccc(c2c1ONO2)OCCOC,4.394075950896513,-0.2564073722482134,0.0,H19C13NO4
CCc1ccc2c(c1)ON(C(Br)(Br)Br)O2,4.53819462362444,2.484543758438668,0.0,H8C9Br3NO2
C=Cc1ccc2c(c1)ON(OC)O2,4.056170520916202,0.4052747793772142,0.0,H9C9NO3
COCCOCCOc1ccc2c(c1)ON(N)O2,3.046783529503591,-0.3115310997694904,0.0,H16C11N2O5
CCc1ccc(c2c1ONO2)OCCOCCOC,4.404111585457576,-0.2705372425101813,0.0,H19C13NO5
CCN1Oc2ccc(cc2O1)OCCOCCOCCOC,3.9500791421574832,-0.4470360742510819,0.0,H23C15NO6
CNc1ccc2c(c1OCCOC)ONO2,3.580193661194789,-0.1371158409732742,0.0,H7C5NO2
COCCOCCOCCOc1ccc2c(c1)ON(N)O2,2.972510206922016,-0.2527249590733844,0.0,H20C13(NO3)2
COCCOc1c(ccc2c1ONO2)C(F)(F)F,4.702112503333046,0.3374785335086927,0.0,H10C10NO4F3
CCc1ccc2c(c1)ON(C(=O)O)O2,4.52238850218564,0.7225263390624606,0.0,H9C9NO4
CCc1cc(cc2c1ONO2)c1ccccc1,4.239729607431945,0.2999445928195201,0.0,H13C14NO2
COCCOCCOc1cc2c(cc1OCCOC)ONO2,3.892862804788456,-0.1025053444194781,0.0,H21C14NO7
COCCOCCOc1cccc2c1ONO2,4.450003249637666,-0.1065712585135769,0.0,H15C11NO5
CC(C)(C)c1cc(c2c(c1)ONO2)C(C)(C)C,4.209606537469517,-0.4261729565791028,0.0,H21C14NO2
c1c(c(cc2c1ONO2)Cl)C(Br)(Br)Br,4.749281899823108,2.7606489655096085,0.0,H3C7Br3NClO2
CN1Oc2ccc(cc2O1)OCCOCCOC,3.930390995717608,-0.377277697129466,0.0,H17C12NO5
C=Cc1ccc2c(c1C)ONO2,4.212913316539561,0.4064337747982791,0.0,H9C9NO2
CCc1cccc2c1ON(OCCOC)O2,4.18669741489939,-0.387256919768697,0.0,H15C11NO4
CCc1c(ccc2c1ONO2)OCCOC,4.111917797306523,-0.3449773735941561,0.0,H15C11NO4
COCCOCCOc1cccc2c1ON(C(=O)O)O2,4.657258874538092,0.7164283495709243,0.0,H15C12NO7
CCc1cc2c(cc1C(F)(F)F)ONO2,4.633142214149848,0.3382746787407087,0.0,H8C9NO2F3
CCc1ccc2c(c1)ON(N(C)C)O2,4.308636532184755,-0.4126559275013277,0.0,H7C5NO
CC(C)(C)N1Oc2ccc(cc2O1)C(F)(F)F,4.365336269596446,0.2368875332664175,0.0,H12C11NO2F3
COCCOc1cccc2c1ON(C#N)O2,4.804395363201911,3.9600581144528406,0.0,H5C5NO2
C=Cc1cc2c(cc1F)ONO2,4.370531826186925,0.6007907792569314,0.0,H6C8NO2F
Cc1cc(c2c(c1)ONO2)OCCOC,4.343828903367102,-0.156284494884312,0.0,H13C10NO4
C=Cc1ccc2c(c1O)ONO2,4.326439898448006,0.3880261008485832,0.0,H7C8NO3
c1cc2c(c(c1C#N)C(=O)O)ONO2,4.934972935663245,1.5341972140246072,0.0,H2C4NO2
COCCOCCOc1ccc2c(c1)ON(OCCOCCOC)O2,3.9511023500541342,-0.2442209362983702,0.0,H25C16NO8
COCCOCCOCCON1Oc2cccc(c2O1)C(Cl)(Cl)Cl,4.458612953248666,2.6290215642598924,0.0,H18C14N(ClO2)3
c1cc2c(c(c1N)C(=O)O)ONO2,3.884899755213701,0.869732899767405,0.0,H6C7(NO2)2
COCCOCCOCCOc1cccc2c1ONO2,4.442656799133692,-0.0907685466612746,0.0,H19C13NO6
C=Cc1ccc2c(c1CC)ONO2,4.216174445789511,0.3827417616645108,0.0,H11C10NO2
C=Cc1ccc2c(c1N(=O)=O)ONO2,4.622579587603104,2.112141950970545,0.0,H3C4NO2
COCCOCCOCCOc1ccc2c(c1O)ONO2,4.26467533337709,-0.0025007957614433,0.0,H19C13NO7
Cc1ccc2c(c1OCCOC)ONO2,4.347286512410937,-0.1265430564148117,0.0,H13C10NO4
CC(=O)c1cc2c(cc1OCCOCCOC)ONO2,4.229453505869605,0.9814101198404388,0.0,H17C13NO6
c1c(c(cc2c1ONO2)N(=O)=O)Cl,4.949846204604546,2.129522841450671,0.0,H3C6N2ClO4
CCc1c(ccc2c1ONO2)Cl,4.461471443822665,1.1909801110356055,0.0,H8C8NClO2
COc1cc2c(cc1Cl)ONO2,4.101717044069664,1.3561676521436312,0.0,H6C7NClO3
COCCOc1c(ccc2c1ONO2)N,3.688693524976407,-0.1096192328281175,0.0,H12C9(NO2)2
Cc1cc2c(cc1OCCOCCOC)ONO2,4.036037947274599,-0.2664408870390615,0.0,H17C12NO5
C#Cc1cc2c(cc1C=C)ONO2,4.348954523985958,0.6963586832076545,0.0,H7C10NO2
COCCOCCOCCOc1ccc2c(c1Cl)ONO2,4.431055492293671,1.370951406520908,0.0,H18C13NClO6
CN(C)N1Oc2ccc(cc2O1)OCCOCCOC,4.055669240967836,-0.3146496794674021,0.0,H20C13N2O5
CC(C)(C)N1Oc2ccc(cc2O1)OCCOC,3.762708426494646,-0.3070587700589384,0.0,H19C13NO4
C=Cc1c(ccc2c1ONO2)Cl,4.516132790072879,0.7022306141203445,0.0,H6C8NClO2
CN(C)c1c(ccc2c1ONO2)Cl,4.188005166791845,0.0708329449458688,0.0,H9C8N2ClO2
c1cc2c(cc1Cl)ON(C(Cl)(Cl)Cl)O2,4.785996192820312,2.313122864763136,0.0,H3C7N(Cl2O)2
C=Cc1ccc2c(c1N)ONO2,4.252922434641368,0.3294130357986433,0.0,H4C4NO
CC(C)(C)c1cc(cc2c1ONO2)OCCOCCOCCOC,4.008716871603246,-0.4739601739223871,0.0,H27C17NO6
COCCOc1ccc2c(c1OCCOC)ONO2,4.225928325520362,-0.0375755484550608,0.0,H17C12NO6
CCc1cc(cc2c1ONO2)OCCOCCOC,4.016306602761324,-0.2965405443268536,0.0,H19C13NO5
CCc1ccc2c(c1C#N)ONO2,4.644425381816836,0.839934935092606,0.0,H8C9(NO)2
C=Cc1ccc2c(c1)ON(C)O2,4.118052633731713,0.3549013893876691,0.0,H9C9NO2
CC(C)(C)c1ccc(c2c1ONO2)C(C)(C)C,4.272302602633863,-0.4426495474639522,0.0,H21C14NO2
COCCOc1ccc2c(c1)ONO2,4.070898565417883,-0.0148667778543312,0.0,H11C9NO4
CN(C)c1ccc2c(c1OCCOC)ONO2,3.672093688289897,-0.1059654351469361,0.0,H16C11(NO2)2
CN(C)c1ccc2c(c1O)ONO2,3.696736970590428,-0.1297297053919464,0.0,H10C8N2O3
COCCOCCOc1c(ccc2c1ONO2)N(=O)=O,4.793390048258152,1.970639244629274,0.0,H14C11N2O7
COCCOCCOc1ccc2c(c1N(=O)=O)ONO2,4.550884282410697,2.0546913834565204,0.0,H14C11N2O7
CNc1c(ccc2c1ONO2)OCCOCCOC,3.879192551130109,-0.7309378816156822,0.0,H18C12N2O5
C=Cc1ccc2c(c1C#N)ONO2,4.553457165014697,1.0715011885673449,0.0,H6C9(NO)2
c1ccc(cc1)c1ccc(c2ccccc2)c2c1ONO2,4.5579733241080245,0.7003551021458407,0.0,H13C18NO2
CCc1cc(cc2c1ONO2)OCCOC,4.043401930067921,-0.2973132578285002,0.0,H15C11NO4
CON1Oc2ccc(cc2O1)Cl,4.423710108481464,0.0479843241679192,0.0,H6C7NClO3
c1c(c(cc2c1ONO2)Cl)C(F)(F)F,4.815876648784615,0.6008018923908822,0.0,H3C7NClO2F3
CNc1c(ccc2c1ONO2)OCCOC,3.8825666511635055,-0.6936267885488632,0.0,H7C5NO2
COCCOc1c(ccc2c1ONO2)N(=O)=O,4.803276071908476,1.9879909345741908,0.0,H10C9(NO3)2
COCCOCCOc1cc2c(cc1c1ccccc1)ONO2,4.311153699481656,0.2508147140921211,0.0,H19C17NO5
Cc1cc2c(cc1OCCOCCOCCOC)ONO2,3.991804675440653,-0.2679021846073737,0.0,H21C14NO6
COCCOCCOCCOc1ccc(c2c1ONO2)N(=O)=O,4.830894535350671,1.992135908623459,0.0,H18C13(NO4)2
COCCOc1ccc2c(c1c1ccccc1)ONO2,4.220219317319424,0.3711173115458224,0.0,H15C15NO4
COCCOCCOCCON1Oc2cccc(c2O1)C(Br)(Br)Br,4.472264186153188,3.0013449811027386,0.0,H18C14Br3NO6