smiles,IE,EA,charge,formula_pretty
CNC1=C(F)SC=CC1,3.3597765892533062,-0.4219754019781248,0.0,H8C6SNF
C1=CSC(=C(C1)C(=O)N)N,4.073681460043735,0.4157156050474442,0.0,H8C6SN2O
CNC1=CSC=CC1,3.1837445633587778,-0.7311888766984338,0.0,H9C6SN
c1ccc(cc1)C1=CCC(=CS1)[C]([NH])O,4.342107750680588,0.63295887179047,0.0,H11C12SNO
CN(C)C1=CCC=C(F)S1,3.6760774512164063,0.597100477499771,0.0,H10C7SNF
CN(C)C1=CSC(=CC1)N(=O)=O,3.503554640757648,2.0804387241129008,0.0,H10C7S(NO)2
COC1=CSC(=CC1)OC,3.813456528123061,-0.8642872083568363,0.0,H10C7SO2
C1=CSC(=C[C@@H]1C(=N)O)N(=O)=O,5.067773457774456,2.31054883112447,0.0,H6C6SN2O3
C1=CSC=C([C@@H]1C#N)O,4.305506455680733,0.4823005796948565,0.0,H5C6SNO
C1=CSC(=C[C@@H]1C(=O)O)O,4.517585118775605,0.3337851405427501,0.0,H6C6SO3
CC1=C(N(=O)=O)SC=CC1,4.486457301116024,1.9726544870660288,0.0,H7C6SNO2
CO[C@@H]1C=CSC=C1N(=O)=O,5.227117686181009,1.9929916413362665,0.0,H7C6SNO3
CNC1=CCC=C(F)S1,3.808737282307993,0.3308101090602577,0.0,H8C6SNF
CNC1=CSC(=CC1)N(=O)=O,3.505196894036635,2.087834016323177,0.0,H8C6S(NO)2
CNC1=CCC=CS1,3.368704257898208,-0.4368306651471356,0.0,H9C6SN
CN(C)C1=CCC(=CS1)F,3.814518589680665,-0.4178612557101586,0.0,H10C7SNF
CNC1=CCC(=CS1)[C]([NH])O,3.701670764557639,0.585506936787715,0.0,H10C7SN2O
C1=CSC(=C(C1)F)C(=N)O,4.51348432785162,0.8076535778942344,0.0,H6C6SNOF
C1C=C(N(=O)=O)SC=C1[C]([NH])O,4.894053721943783,2.234499674582912,0.0,H6C6SN2O3
CC1=CCC(=CS1)N(=O)=O,4.709114465882157,1.954398818617483,0.0,H7C6SNO2
CN[C@@H]1C=CSC=C1F,4.43642355001939,-0.1518918917994596,0.0,H8C6SNF
c1ccc(cc1)[C@@H]1C=CSC(=C1)C(=O)O,4.869462622942228,0.9393801891361364,0.0,H10C12SO2
CNC1=CSC=C(C1)O,3.1885424663974846,-0.4617855830932966,0.0,H9C6SNO
CC1=CSC=C[C@H]1O,4.386634548989241,-0.3296961842410382,0.0,H8C6SO
CC1=CCC(=CS1)N,3.331949909746618,-0.7033037906752724,0.0,H9C6SN
COC1=CCC=C(N)S1,3.730876389106561,-0.7090980249289713,0.0,H9C6SNO
C1=CSC(=C[C@@H]1O)C(=O)O,4.935214510163496,1.06959037797933,0.0,H6C6SO3
COC1=C(CC=CS1)F,4.150962035111297,0.1361601114746009,0.0,H7C6SOF
CC1=C(CC=CS1)N(=O)=O,4.7077692575127,1.794291057829105,0.0,H7C6SNO2
C1=CSC(=C[C@@H]1C(=N)O)O,4.582089108285436,0.1443294015713037,0.0,H7C6SNO2
COC1=C[C@@H](C=CS1)O,4.372780811694247,-0.1173800854980071,0.0,H8C6SO2
C[C@@H]1C=CSC=C1O,3.835950394089741,-0.5650363083499541,0.0,H8C6SO
CC1=CCC(=CS1)O,3.760473928332067,-0.9271093683550132,0.0,H8C6SO
CO[C@@H]1C=CSC=C1,4.497325193131109,-0.2561743611644487,0.0,H8C6SO
CC1=CCC=CS1,4.022549032999086,-0.6169334759673801,0.0,H8C6S
C[C@@H]1C=CSC=C1N,3.3724680630381045,-0.6694653518301492,0.0,H9C6SN
CN(C)C1=CCC=C(N(=O)=O)S1,3.784222761556157,2.093561520102958,0.0,H10C7S(NO)2
C1C(=CSC=C1N(=O)=O)C(=N)O,5.041010846778226,2.1036957605516364,0.0,H6C6SN2O3
COC1=CSC=C(C1)F,3.910687295252137,-0.1232956417028616,0.0,H7C6SOF
C1=CSC(=C(C1)N)C(=O)O,4.031032113883702,0.1592687724092685,0.0,H7C6SNO2
COC1=C(N(=O)=O)SC=CC1,4.336645884437166,1.8176990929619932,0.0,H7C6SNO3
CN[C@@H]1C=CSC=C1N(=O)=O,4.611504034639074,1.9686917367704155,0.0,H8C6S(NO)2
CN[C@@H]1C=CSC(=C1)N(=O)=O,4.604031775024486,2.1673129283422896,0.0,H8C6S(NO)2
CNC1=CCC(=CS1)N(=O)=O,4.003501597636932,1.970707828198647,0.0,H8C6S(NO)2
C1C=C(N)SC=C1[C]([NH])O,3.8743054600614415,0.5814292891496735,0.0,H8C6SN2O
COC1=CSC=C[C@H]1N,3.847602931802248,-0.5717547092266613,0.0,H9C6SNO
CO[C@@H]1C=CSC(=C1)OC,4.341463210961228,0.0656866708901362,0.0,H10C7SO2
COC1=CCC(=CS1)F,4.181184282400499,-0.558813720652688,0.0,H7C6SOF
c1ccc(cc1)C1=CSC(=CC1)N(=O)=O,4.332855159069004,2.121528060682613,0.0,H9C11SNO2
CC1=CCC=C(N(=O)=O)S1,4.547880093932326,2.11983176831709,0.0,H7C6SNO2
COC1=CSC=C(C1)N(=O)=O,4.413645140053268,1.9271677663688025,0.0,H7C6SNO3
c1ccc(cc1)C1=C[C@@H](C=CS1)C(=O)O,4.507179583547986,0.6489483108758578,0.0,H10C12SO2
COC1=CSC=CC1,3.77959565620913,-0.6851531119122227,0.0,H8C6SO
COC1=CSC=C[C@H]1O,4.15870851200234,-0.1920836336670617,0.0,H8C6SO2
COC1=C(CC=CS1)O,3.753256487003091,-0.5895201074439682,0.0,H8C6SO2
CN(C)C1=CSC(=CC1)F,3.3936438150172763,-0.6293707083517801,0.0,H10C7SNF
CN(C)[C@@H]1C=CSC(=C1)N(=O)=O,4.359694661272078,2.174893913762935,0.0,H10C7S(NO)2
c1ccc(cc1)C1=CCC=C(C(=O)O)S1,4.485439973601023,0.8386352677021933,0.0,H10C12SO2
CN(C)[C]1[C](CC=CS1)N(=O)=O,4.457321179883001,1.5443677680683323,0.0,H10C7S(NO)2
C1=CSC=C([C@@H]1C(=N)O)F,4.682049427564925,0.3757942300486321,0.0,H6C6SNOF
C1C=C(C#N)SC(=C1)N,3.9392552727200383,0.6856796953412414,0.0,H6C6SN2
C1=CSC=C([C@@H]1C(=O)O)O,4.239753648691112,-0.290666232415242,0.0,H6C6SO3
C1C=C(C(=N)O)SC(=C1)N(=O)=O,4.953552596447116,2.222284688455693,0.0,H6C6SN2O3
C1C=C(O)SC=C1[C]([NH])O,4.3406635092083885,0.6051848490256817,0.0,H7C6SNO2
C1=CSC=C[C@@H]1C(=N)O,4.584633432541159,0.248708329852525,0.0,H7C6SNO
C1C=CSC(=C1)C(=N)O,4.434792496945738,0.5758283264745843,0.0,H7C6SNO
C1=CSC=C([C@@H]1N)[C]([NH])O,4.668901651524356,0.5656360060398584,0.0,H8C6SN2O
CNC1=C(O)SC=CC1,3.4163191373787414,-0.5736228333138569,0.0,H9C6SNO
COC1=C(CC=CS1)N,3.1826386600638217,-0.681236678118148,0.0,H9C6SNO
CC1=CCC(=CS1)OC,3.6553642056838727,-0.5459099327621515,0.0,H10C7SO
CCC1=C(O)SC=CC1,3.9078390579321423,-0.431293115873268,0.0,H10C7SO
CC1=CCC=C(F)S1,4.281323462107684,0.3419101060186222,0.0,H7C6SF
C1C=C(C(Cl)(Cl)Cl)SC=C1N,3.60688441508828,2.63163538093213,0.0,H6C6SNCl3
CC1=CSC(=CC1)N(=O)=O,4.46712714492387,2.1190865491968,0.0,H7C6SNO2
C[C@@H]1C=CSC(=C1)N(=O)=O,4.633600519163883,2.1446231431305933,0.0,H7C6SNO2
CO[C@@H]1C=CSC(=C1)N(=O)=O,5.245898605082038,2.2853533563771635,0.0,H7C6SNO3
COC1=CCC(=CS1)N(=O)=O,4.594784225676994,1.9760912712386929,0.0,H7C6SNO3
CNC1=C(CC=CS1)F,3.6701762544595113,0.2625054103242292,0.0,H8C6SNF
CNC1=CSC=C(C1)F,3.4034039914600727,-0.7280457033542915,0.0,H8C6SNF
c1ccc(cc1)C1=C(O)SC=CC1,3.944935314402392,0.0883079650498985,0.0,H10C11SO
C[C@@H]1C=CSC(=C1)O,4.087483199111011,-0.3842658444540574,0.0,H8C6SO
CC1=C(CC=CS1)O,3.688572494187247,-0.516430461013806,0.0,H8C6SO
CN(C)[C@@H]1C=CSC=C1N(=O)=O,4.266755464073503,1.955027352605248,0.0,H10C7S(NO)2
C1=CSC(=C(C1)C#N)N,4.2554333269887135,0.4394258253174485,0.0,H6C6SN2
CC1=CSC=C(C1)N(=O)=O,4.646747198583034,1.9461517583891688,0.0,H7C6SNO2
C1=CSC=C([C@@H]1[C]([NH])O)O,4.279552381978283,-0.2668855809155501,0.0,H7C6SNO2
CNC1=CCC=C(N(=O)=O)S1,3.677816762055591,2.148328868298995,0.0,H8C6S(NO)2
CO[C@@H]1C=CSC=C1O,4.179598226075177,-0.3684832581406225,0.0,H8C6SO2
c1ccc(cc1)C1=C(CC=CS1)C(=O)O,4.486420280032325,1.2553996391266993,0.0,H10C12SO2
COC1=CCC=C(O)S1,4.030516142507258,-0.4689535459641774,0.0,H8C6SO2
CC1=C[C@@H](C=CS1)O,4.4888312086382935,-0.2243014277904875,0.0,H8C6SO
CC1=C[C@@H](C=CS1)N,4.313416679798683,-0.5129939081329211,0.0,H9C6SN
CNC1=CSC=C(C1)[C]([NH])O,3.530406173116353,0.491460902952531,0.0,H10C7SN2O
CNC1=CSC(=CC1)[C]([NH])O,3.553631032098201,0.5940171746384295,0.0,H10C7SN2O
COC1=CCC=C(OC)S1,3.957704190970253,0.2445727850114054,0.0,H10C7SO2
C1=CSC(=C[C@@H]1C(=N)O)F,4.82170270675997,0.3971321863660706,0.0,H6C6SNOF
c1ccc(cc1)C1=CCC(=CS1)N(=O)=O,4.627830780592921,1.9340756074649108,0.0,H9C11SNO2
C1=CSC=C[C@@H]1C#N,4.613765129202511,0.0821310217303108,0.0,H5C6SN
C[C@@H]1C=CSC=C1N(=O)=O,4.814696482908039,1.9707642374029093,0.0,H7C6SNO2
C1=CSC=C([C@@H]1O)C(=N)O,4.915672739205183,0.7094637809110282,0.0,H7C6SNO2
C1=CSC(=C(C1)O)C(=N)O,4.247647216715995,0.5369048936059699,0.0,H7C6SNO2
C1=CSC(=C[C@@H]1N)C(=N)O,4.639340874875051,0.6354317389501376,0.0,H8C6SN2O
CNC1=C(CC=CS1)N(=O)=O,4.577492825273657,1.387460490515514,0.0,H8C6S(NO)2
c1ccc(cc1)C1=CSC=C(C1)C(=O)O,4.333150854292034,0.983518362621544,0.0,H10C12SO2
CC1=CCC=C(O)S1,4.0112900099971736,-0.5652097183359728,0.0,H8C6SO
c1ccc(cc1)C1=C(C(=O)O)SC=CC1,4.320377838872082,1.2394750229992495,0.0,H10C12SO2
CNC1=CCC(=CS1)O,3.640050120493106,-0.7284796949992596,0.0,H9C6SNO
CN[C@@H]1C=CSC=C1,4.253495217942691,-0.4126881348951428,0.0,H9C6SN
CC1=CSC(=CC1)N,3.663674554156023,-0.7168468528856464,0.0,H9C6SN
CN[C@@H]1C=CSC=C1C(=N)O,4.49073043262033,0.6600700633331145,0.0,H10C7SN2O
C1C=C(C(=N)O)SC=C1F,4.50949349541188,0.6939569139482047,0.0,H6C6SNOF
C1C=C(C(=N)O)SC(=C1)F,4.651792325208225,0.6960159503811156,0.0,H6C6SNOF
CO[C@@H]1C=CSC(=C1)F,4.793477097476716,-0.0398488446066038,0.0,H7C6SOF
CC1=CSC=C(C1)F,4.092007758355612,-0.3826159148469741,0.0,H7C6SF
c1ccc(cc1)[C@@H]1C=CSC(=C1)N(=O)=O,4.7540834274092045,2.161893748592411,0.0,H9C11SNO2
CO[C@@H]1C=CSC(=C1)O,4.492654312829108,-0.334843141301826,0.0,H8C6SO2
C1C=C([C]([NH])O)SC(=C1)N,3.917269141240104,0.6145683110713436,0.0,H8C6SN2O
CC1=CSC=CC1,3.956568779650843,-0.5836856384397833,0.0,H8C6S
CC1=CSC=C(C1)O,3.710488360434829,-0.9319271030493836,0.0,H8C6SO
COC1=CCC(=CS1)N,3.412716728396481,-0.6917700279358541,0.0,H9C6SNO
CN(C)C1=CSC=C(C1)F,3.3186502533622844,-0.5374375024097389,0.0,H10C7SNF
C1=CSC=C([C@@H]1C(=N)O)N(=O)=O,5.265251490943774,2.43356627296962,0.0,H6C6SN2O3
C1=CSC=C(C#N)[C@@H]1N,4.771313408995047,0.7354292861178693,0.0,H6C6SN2
C1=CSC(=C(C1)O)C(=O)O,4.2669182697842185,0.7631461214383308,0.0,H6C6SO3
CC1=CCC(=CS1)F,4.159251746461086,-0.3844691053258429,0.0,H7C6SF
c1ccc(cc1)C1=C(CC=CS1)O,3.755594603391364,0.1413630124239717,0.0,H10C11SO
C1C=C(O)SC=C1C(=O)O,4.502221805463341,0.8628016323942576,0.0,H6C6SO3
CC1=C(CC=CS1)F,4.138938391266128,-0.1781803444340766,0.0,H7C6SF
c1ccc(cc1)C1=C(N(=O)=O)SC=CC1,4.553022054985922,2.0504213350046485,0.0,H9C11SNO2
C1=CSC(=C[C@@H]1C(=O)O)N,4.215400110487826,0.1609889182669577,0.0,H7C6SNO2
COC1=CCC=C(F)S1,4.174079868998524,0.5031316178588896,0.0,H7C6SOF
CNC1=CSC(=CC1)F,3.488648914082296,-0.7929116804611112,0.0,H8C6SNF
C1=CSC(=C[C@@H]1O)C(=N)O,4.864382331024535,0.7912558265466942,0.0,H7C6SNO2
CNC1=CCC(=CS1)F,3.78364941769687,0.055011704867502,0.0,H8C6SNF
COC1=CSC(=CC1)O,3.756255336605682,-0.4613404756004455,0.0,H8C6SO2
CNC1=CSC=C(C1)N(=O)=O,3.8394847691721226,1.8298623556926032,0.0,H8C6S(NO)2
CNC1=CSC=C[C@H]1N(=O)=O,3.859043081940035,1.6452377394176438,0.0,H8C6S(NO)2
CNC1=CCC=C(O)S1,3.538963383257942,-0.764388473881263,0.0,H9C6SNO
CNC1=CSC(=CC1)O,3.363051106503553,-0.4956998001965984,0.0,H9C6SNO
CNC1=CSC=C[C@H]1O,3.519277198761847,-0.362742072479159,0.0,H9C6SNO
COC1=CSC(=CC1)N,3.62507439252804,-0.7253644677424744,0.0,H9C6SNO
CC1=CCC=C(N)S1,3.6661473233521975,-0.6435378418776962,0.0,H9C6SN
CN(C)[C]1CC=CS[C]1N(=O)=O,4.042032087237748,1.4757114220607035,0.0,H10C7S(NO)2
CN(C)[C@@H]1C=CSC(=C1)F,4.143744689020968,-0.1640007753034296,0.0,H10C7SNF
c1ccc(cc1)C1=C(CC=CS1)C(=N)O,4.301905782785616,1.0881653801749054,0.0,H11C12SNO
CC[C@@H]1C=CSC(=C1)O,4.081005390403879,-0.5450445318441779,0.0,H10C7SO
CC1=C(N)SC=CC1,3.5043370197505284,-0.6661720505639095,0.0,H9C6SN
C#CC1=CCC(=CS1)O,3.9343331551586735,0.4763971733715153,0.0,H6C7SO
C#CC1=C(CC=CS1)O,3.952452578921657,0.4920591316200444,0.0,H6C7SO
CCC1=C(CC=CS1)N(=O)=O,4.864860026149108,1.6776344116202382,0.0,H9C7SNO2
CCC1=CSC=C(C1)N,3.300544552295469,-0.7018897456677222,0.0,H11C7SN
c1ccc(cc1)C1=CSC=C(C1)O,3.7475278158577567,0.304551480106602,0.0,H10C11SO
C1C=C(C(=O)O)SC(=C1)C(=O)O,5.019066394973924,1.2772084911644923,0.0,H6C7SO4
C[C@@H]1C=CSC(=C1)OC,3.969268322530843,-0.0028672311877016,0.0,H10C7SO
C#CC1=CSC(=CC1)N,3.840883989412396,0.4894433260247752,0.0,H7C7SN
CC1=C(C)SC=CC1,3.8470765512043728,-0.5187648222294228,0.0,H10C7S
CNC1=CSC(=CC1)c1ccccc1,3.2227250596493837,0.2278274542601139,0.0,H13C12SN
COC1=CSC=C[C@H]1C(=O)O,4.360035025665274,-0.3131693244671623,0.0,H8C7SO3
C1=C(C(Cl)(Cl)Cl)SC(=CS1)N(=O)=O,4.692179134589969,2.55086152543081,0.0,H2C5S2NCl3O2
C#CC1=CCC=C(O)S1,4.183854361349949,0.5116652656703082,0.0,H6C7SO
CN(C)C1=CSC(=CC1)O,3.233939929699409,-0.4655419649010581,0.0,H11C7SNO
CNC1=CSC(=CC1)OC,3.337590040487703,-0.8868108626251341,0.0,H11C7SNO
CNC1=C[C@@H](C=CS1)C(=O)O,4.356836626682343,-0.1147847081505459,0.0,H9C7SNO2
C1=CSC=C([C@@H]1C(=O)O)C(=O)O,5.012105088958924,1.1235641823528568,0.0,H6C7SO4
CNC1=C(CC=CS1)c1ccccc1,3.570294769060274,-0.0408342209106193,0.0,H13C12SN
CCC1=C(CC=CS1)O,3.6844111797014194,-0.5484925652039236,0.0,H10C7SO
C1=CSC(=C[C@@H]1C(=O)O)C(=O)O,4.94044388779148,1.3277359003055609,0.0,H6C7SO4
CC1=C(CC=CS1)OC,3.5874988216761268,-0.5976606979624193,0.0,H10C7SO
CNC1=CCC(=CS1)OC,3.5996690574516834,-0.8277608092670561,0.0,H11C7SNO
CNC1=CSC=C(C1)C(=O)O,3.8513670102562174,0.594883846542507,0.0,H9C7SNO2
COC1=CSC=C[C@H]1[C]([NH])O,4.381574831526086,0.0697287604176382,0.0,H9C7SNO2
CC1=CSC(=CC1)c1ccccc1,3.955452647596394,0.2471001969293866,0.0,H12C12S
CC[C@@H]1C=CSC=C1,4.09584191138274,-0.4373200007161357,0.0,H10C7S
C1C=C(C(=N)O)SC(=C1)C(=O)O,4.8106092350950345,0.9951716848132492,0.0,H7C7SNO3
CCC1=CCC(=CS1)O,3.740499080032896,-0.6647556735428224,0.0,H10C7SO
C#C[C@@H]1C=CSC(=C1)O,4.375323258363641,-0.2595972675393567,0.0,H6C7SO
C1=CSC(=C[C@@H]1C(=N)O)C#N,4.977125848222931,1.170597306941636,0.0,H6C7SN2O
C1=CSC(=C[C@@H]1C(Cl)(Cl)Cl)C(=N)O,4.933473199287255,2.19749736541562,0.0,H6C7SNCl3O
CC[C@@H]1C=CSC(=C1)N(=O)=O,4.812706598485965,1.99882829718772,0.0,H9C7SNO2
CCC1=CSC=C[C@H]1O,4.3832604027025805,-0.3711985025423927,0.0,H10C7SO
C#CC1=C(C(=N)O)SC=CS1,4.130195060702681,1.6082090760261054,0.0,H5C7S2NO
C1=CSC(=C(C1)C(=O)O)C(=O)O,4.909336957590858,2.061069484204927,0.0,H6C7SO4
c1ccc(cc1)C1=C(C(=N)O)SC=CC1,4.247156889346661,1.0566253180491914,0.0,H11C12SNO
C[C@@H]1C=CSC(=C1)C(Cl)(Cl)Cl,4.454377803399984,2.643102113879286,0.0,H7C7SCl3
C1C(=CSC=C1C(=N)O)C#N,4.84212695922688,1.1497951046781965,0.0,H6C7SN2O
C1C=C(C(=O)O)SC=C1C#N,4.982057010847347,1.2137048057280482,0.0,H5C7SNO2
C1C=C(C#N)SC(=C1)C(=N)O,4.884008228700258,1.0519273217738374,0.0,H6C7SN2O
CC1=C[C@@H](C=CS1)OC,4.44537574154092,-0.3768379871456999,0.0,H10C7SO
C[C@@H]1C=CSC(=C1)C,4.051118070766824,-0.7625004412642737,0.0,H10C7S
CNC1=C(OC)SC=CC1,3.085981403144251,-0.618884794616315,0.0,H11C7SNO
CC1=CCC=C(OC)S1,3.9043792257121823,-0.5548777604257338,0.0,H10C7SO
C#C[C@@H]1C=CSC(=C1)N,3.944556287032901,-0.2981421019489061,0.0,H7C7SN
CCC1=CSC(=CC1)N(=O)=O,4.647291162954934,1.9934523370444368,0.0,H9C7SNO2
CN(C)[C@@H]1C=CSC(=C1)C(Cl)(Cl)Cl,4.392961443774402,2.4983343426589277,0.0,H10C8SNCl3
CCC1=CSC=C(C1)N(=O)=O,4.817152661247382,1.808557005669718,0.0,H9C7SNO2
CCC1=CCC=C(N(=O)=O)S1,4.715424005740351,1.9686772145083524,0.0,H9C7SNO2
C=C[C@H]1C=CC=C[C@@H]1N(=O)=O,5.130654533165943,1.3504289678254282,0.0,H9C8NO2
C1C=C(O)OC=C1C(=O)O,4.7163088373996285,0.6955855343181612,0.0,H3C3O2
C1=COC=C([C@@H]1C(=O)O)O,4.51660523684186,-0.3751791307135135,0.0,H3C3O2
C1C(=COC=C1N)C(=O)O,3.8639391364373297,0.5419475657650765,0.0,H7C6NO3
COC1=COC=C(C1)F,4.055337536919614,-0.4870986463905864,0.0,H7C6O2F
C1=COC(=C(C1)N)C(=O)O,4.041051535901351,0.3377532732498367,0.0,H7C6NO3
COC1=CCC(=CO1)F,4.205700631756917,-0.5707964521792745,0.0,H7C6O2F
C1=COC(=C(C1)C(=O)O)N,4.422179046364908,0.1745001975774358,0.0,H7C6NO3
C1=COC=C([C@@H]1O)C(=N)O,5.237714463013253,0.5256044086159819,0.0,H7C6NO3
CCc1cc(c2ccccc2)n(C)c1,3.8559908354305663,-0.1906436045086592,0.0,H15C13N
COC1=CCC=C(F)O1,4.267932555070365,-0.2881927285056007,0.0,H7C6O2F
CC1=COC(=CC1)N(=O)=O,4.8152588959543206,2.0687637342885865,0.0,H7C6NO3
Cn1cc(cc1c1ccccc1)c1ccccc1,3.860615899234836,-0.1314371374013716,0.0,H15C17N
C1=COC=C([C@@H]1N)C(=O)O,5.181331387200407,0.6023737253159198,0.0,H7C6NO3
CN(C)c1ccc(c2ccccc2)n1C,3.2462741982577428,-0.1980161534469515,0.0,H16C13N2
C1=COC=C(C1)[C]([NH])O,4.755911512665625,0.449476891453378,0.0,H7C6NO2
C[C@@H]1C=COC(=C1)N(=O)=O,5.052283538057599,2.0948269011511003,0.0,H7C6NO3
COC1=C(CC=CO1)F,4.08425031255465,-0.1499961318317217,0.0,H7C6O2F
c1ccc(cc1)C1=C(N(=O)=O)OC=CC1,4.79347622126952,2.0811666884925217,0.0,H9C11NO3
CC1=CCC=C(N(=O)=O)O1,4.845934792390471,2.0675158283898782,0.0,H7C6NO3
CO[C@@H]1C=COC(=C1)F,5.309642134374007,-0.2580511112631938,0.0,H7C6O2F
C1C=COC(=C1)C(=N)O,4.722979645566374,0.5262877354467492,0.0,H7C6NO2
C[C@@H]1C=COC=C1N(=O)=O,5.241697006867616,1.8942930105218692,0.0,H7C6NO3
COC1=COC(=CC1)N(=O)=O,4.474742887441243,2.071454640826778,0.0,H7C6NO4
COC1=C(N(=O)=O)OC=CC1,4.6845244063275455,1.8051355671010243,0.0,H7C6NO4
C1=COC(=C[C@@H]1[C]([NH])O)O,4.814926381009718,0.018315570028426,0.0,H7C6NO3
CNC1=COC(=CC1)F,3.5001387549269567,-0.7954338464864121,0.0,H8C6NOF
COC1=CCC(=CO1)N(=O)=O,4.582298815537433,1.9384981403432904,0.0,H7C6NO4
CC1=COC=C(C1)N(=O)=O,5.021092521959508,1.8633368014612643,0.0,H7C6NO3
C1=COC(=C[C@@H]1N)C(=N)O,5.003385843188516,0.5945086285588332,0.0,H4C3NO
C1C=C(C(=N)O)OC=C1N,3.714726264075216,0.4141154015229404,0.0,H4C3NO
c1ccc(cc1)[C@@H]1C=COC=C1N(=O)=O,5.228220909147785,1.898351680947235,0.0,H9C11NO3
CN[C@@H]1C=COC(=C1)F,4.474671672530894,-0.4000807714968686,0.0,H8C6NOF
C1C=C(O)OC=C1[C]([NH])O,4.556513256489415,0.4343401047495718,0.0,H7C6NO3
CC1=C(N(=O)=O)OC=CC1,4.90984488528702,1.9190489588341733,0.0,H7C6NO3
C1=COC(=C[C@@H]1O)C(=N)O,5.399221212746488,0.7170045533508529,0.0,H7C6NO3
C1C=C(C(=N)O)OC(=C1)O,4.512996275355908,0.5120618743090746,0.0,H7C6NO3
CO[C@@H]1C=COC=C1N(=O)=O,5.851765492672348,1.9301949484721264,0.0,H7C6NO4
CNC1=CCC=C(F)O1,3.829188299892485,-0.8519648542682261,0.0,H8C6NOF
CNC1=COC=C(C1)F,3.51807409912326,-0.737192339280591,0.0,H8C6NOF
CO[C@@H]1C=COC(=C1)N(=O)=O,5.6784570922896815,2.205639759778569,0.0,H7C6NO4
COC1=C(CC=CO1)N(=O)=O,5.0291373553514855,1.5091443459765288,0.0,H7C6NO4
CN[C@@H]1C=COC=C1F,4.499895694739825,-0.578462886786292,0.0,H8C6NOF
C1C(=COC=C1N)[C]([NH])O,3.7564353453577497,0.3032523079578824,0.0,H4C3NO
C1=COC(=C[C@@H]1C(=O)O)N,4.298491456161719,-0.2385124940996319,0.0,H7C6NO3
c1ccc(cc1)C1=COC=C[C@H]1C(=O)O,4.558080191376211,0.6108764174510726,0.0,H10(C4O)3
CN[C@@H]1C=COC=C1N(=O)=O,4.768451397274111,1.965301059564445,0.0,H8C6N2O3
c1ccc(cc1)C1=COC=C(C1)C(=O)O,4.520757732113998,0.8132927181446576,0.0,H10(C4O)3
c1ccc(cc1)C1=COC(=CC1)C(=O)O,4.403840209046029,0.8244449010904646,0.0,H10(C4O)3
COC1=CCC=C(O)O1,4.054237108557208,-0.4481630037775175,0.0,H8(C2O)3
c1ccc(cc1)C1=CCC=C(C(=O)O)O1,4.519347542963805,0.7383062232853264,0.0,H10(C4O)3
CNC1=COC(=CC1)N(=O)=O,3.645227352942675,2.032070622637184,0.0,H8C6N2O3
COC1=C(O)OC=CC1,3.651880906372389,-0.651946339087226,0.0,H8(C2O)3
c1ccc(cc1)[C@@H]1C=COC=C1C(=O)O,5.091421184382488,0.7128703441245308,0.0,H10(C4O)3
CC1=CCC=C(O)O1,4.136075922398595,-0.4548235478108835,0.0,H4C3O
C1=COC(=C(C1)N)C(=N)O,3.662637895671287,0.3829270902366262,0.0,H4C3NO
CNC1=CCC=C(N(=O)=O)O1,3.8399066871221295,2.063815518285628,0.0,H8C6N2O3
COC1=C[C@@H](C=CO1)O,4.516070424304052,-0.5211037223074526,0.0,H8(C2O)3
C[C@@H]1C=COC=C1O,4.053745964845438,-0.5564591359347104,0.0,H4C3O
CC1=COC=C(C1)N,3.3807751842356084,-0.60846772328332,0.0,H9C6NO
CNC1=COC=C(C1)O,3.316131056100494,-0.4757717337073699,0.0,H9C6NO2
CNC1=C(CC=CO1)F,3.563511793066573,-0.4017956546744243,0.0,H8C6NOF
CNC1=C(CC=CO1)N(=O)=O,4.758232962081456,1.2471513652686554,0.0,H8C6N2O3
CN[C@@H]1C=COC(=C1)N(=O)=O,4.681123402400408,2.132800901626615,0.0,H8C6N2O3
CO[C@@H]1C=COC=C1O,4.473740376522619,-0.51009104668301,0.0,H8(C2O)3
COC1=COC(=CC1)O,3.9427847225430015,-0.458095368412978,0.0,H8(C2O)3
CC1=COC=C[C@H]1N,4.464212566251808,-0.6933367805053421,0.0,H9C6NO
COC1=CCC(=CO1)O,3.955336528460612,-0.4810716595660778,0.0,H8(C2O)3
CC1=C[C@@H](C=CO1)O,4.847463111601973,-0.505231428226034,0.0,H4C3O
CC1=COC(=CC1)N,3.670381455499955,-0.7174297043988189,0.0,H9C6NO
CC1=COC=CC1,4.238564143859184,-1.0533457835721491,0.0,H8C6O
Cn1cc(cc1C(=O)O)N(=O)=O,5.686350099762057,1.766300927699922,0.0,H3C3NO2
CC1=C(CC=CO1)O,3.8337988716026303,-0.4857839202180911,0.0,H4C3O
c1ccc(cc1)C1=C(CC=CO1)C(=O)O,4.711000924996915,1.1926937288859336,0.0,H10(C4O)3
c1ccc(cc1)[C@@H]1C=COC(=C1)C(=O)O,4.98768206376335,0.8611793740470604,0.0,H10(C4O)3
Cc1c(cc[nH]1)OC,3.619576563716328,-0.9633301203160952,0.0,H9C6NO
CC1=COC=C[C@H]1O,4.76243398613733,-0.5372545738831831,0.0,H4C3O
CNC1=C(N(=O)=O)OC=CC1,4.268606017770798,1.4700801812792634,0.0,H8C6N2O3
C1=COC(=C(C1)C(=O)N)N,4.129789804284519,0.2542228147518472,0.0,H4C3NO
CNC1=CCC=CO1,3.488506672015865,-0.7586675906353775,0.0,H9C6NO
CNC1=CCC=C(O)O1,3.688005406225421,-0.457846294452247,0.0,H9C6NO2
CC1=COC=C(C1)O,3.909921534255409,-0.4670748094362351,0.0,H4C3O
CNC1=C[C@@H](C=CO1)N(=O)=O,3.414145992726481,1.3266523375565158,0.0,H8C6N2O3