smiles,IE,EA,charge,formula_pretty
CN(C)Cn1ccc(=c2ccn(C)cc2)c(c1)C(=O)O,2.3018785141444824,0.3839372529997491,0.0,H19C15N3O2
CCCn1ccc(=c2ccn(C)cc2c2ccccc2)cc1,1.87307487953658,-0.1966369607856903,0.0,H11C10N
CCn1ccc(=c2ccn(cc2)COCCOCCOCCOC)cc1,1.989100935899478,-0.7022451671604357,0.0,H15C10NO2
Cn1ccc(=c2ccn(cc2)CN(=O)=O)cc1,2.195927616875997,1.6641482253231517,0.0,H13C12N3O2
Cn1ccc(=c2ccn(Cc3ccccc3)cc2C#N)cc1,2.20678819174791,0.3673906254494796,0.0,H17C19N3
CCn1ccc(=c2ccn(cc2)CC(Cl)(Cl)Cl)cc1,2.042087522154907,2.2876718887360767,0.0,H15C14N2Cl3
C#CCn1ccc(=c2ccn(CC)cc2)cc1,1.939338778900128,-0.5905805459573457,0.0,H16C15N2
C#CCn1ccc(=c2ccn(C)c(c2)c2ccccc2)cc1,1.9784161710573245,0.2602604902072927,0.0,H9C10N
Cn1ccc(=c2ccn(cc2)CN(=O)=O)cc1N(=O)=O,2.6671246908968897,2.133559386294656,0.0,H3C3NO
CCn1ccc(=c2ccn(cc2)COC)cc1,1.977934066971648,-0.559835772068618,0.0,H18C14N2O
c1cn(ccc1=c1ccn(cc1)CN(=O)=O)CCl,2.4933457594248467,2.175176977457886,0.0,H12C12N3ClO2
CC(=O)c1cc(=c2ccn(C)cc2)cc(n1C)O,2.1577947155252333,0.8787432719705977,0.0,H8C7NO
Cn1ccc(=c2ccn(CC(=O)O)c(c2)OCCOC)cc1,1.7965852713728965,-0.3009300643592723,0.0,H10C8NO2
CCn1ccc(=c2ccn(C)cc2)cc1N(=O)=O,2.5054099944914925,1.61079722693612,0.0,H15C13N3O2
CCCn1ccc(=c2ccn(C)cc2N)cc1,1.698142705122882,-0.3498820459375564,0.0,H19C14N3
C#Cc1cc(=c2ccn(C)cc2)ccn1CC,1.963686216314818,0.4432946936191002,0.0,H16C15N2
c1ccc(cc1)Cn1ccc(=c2ccn(cc2)CN(=O)=O)cc1,2.2185733087622794,1.658508418394922,0.0,H17C18N3O2
Cn1ccc(=c2c(cn(C)cc2O)O)cc1,1.7093655016156846,0.0091836663428694,0.0,H7C6NO
Cn1ccc(=c2ccn(Cc3ccccc3)cc2Cl)cc1,2.007187850229093,-0.114054514246527,0.0,H17C18N2Cl
CN1C=C[C]([C]2C=CN(C)C=C2O)C(=C1)C(Cl)(Cl)Cl,2.069188803312136,3.3668231730349363,0.0,H13C13N2Cl3O
c1ccc(cc1)Cn1ccc(=c2ccn(cc2)CC(Cl)(Cl)Cl)cc1,2.0765234767255607,2.285238192359975,0.0,H17C19N2Cl3
C#Cc1cc(=c2ccn(C)cc2)c(cn1C)C(=O)C,2.258059345150832,0.643700562844606,0.0,H16C16N2O
Cn1ccc(=c2ccn(Cc3ccccc3)c(c2)Cl)cc1,2.0349161877980806,1.243782742889016,0.0,H17C18N2Cl
CN(C)c1cc(=c2ccn(C)cc2)ccn1Cc1ccccc1,1.8564876362775975,-0.3668944643526628,0.0,H23C20N3
CC(=O)c1cc(=c2ccn(C)cc2)cc(Cl)n1C,2.430561216444039,0.9685076244946688,0.0,H15C14N2ClO
CN1C=C[C](C=C1)[C]1C=CN(Cc2ccccc2)C=C1O,1.8774079386690572,-0.1644866263981383,0.0,H18C18N2O
Cc1cc(=c2ccn(C)cc2)cc(C#N)n1C,2.1361026683567617,0.5398100789076126,0.0,H15C14N3
Cn1ccc(=c2ccn(Cc3ccccc3)c(c2)N(=O)=O)cc1,2.610848901412828,1.6263047034386546,0.0,H17C18N3O2
Cn1ccc(=c2ccn(cc2)CN(=O)=O)cc1OCCOCCOC,2.230064635344752,1.6184931178664557,0.0,H23C17N3O5
CNc1cc(=c2ccn(C)cc2)ccn1CN,1.699099000231945,-0.574798955584265,0.0,H18C13N4
C=Cc1cc(=c2ccn(C)cc2)cc(C(=O)C)n1C,2.343059866010299,0.8763494620376151,0.0,H18C16N2O
C#Cc1cc(=c2ccn(C)cc2)ccn1Cc1ccccc1,2.03107651459286,0.456073940442002,0.0,H9C10N
COCCOCCOCn1ccc(=c2ccn(cc2)Cc2ccccc2)cc1,2.049741423195519,-0.3847326121962395,0.0,H28C23N2O3
Cc1cc(=c2ccn(C)cc2)cc(N)n1C,1.6435783620159783,-0.3982732634853163,0.0,H17C13N3
C=Cc1cc(=c2ccn(C)cc2)ccn1Cc1ccccc1,1.896230695072154,0.4251389970719175,0.0,H10C10N
CC1=C[C]([C]2C=CN(C)C=C2)C(=CN1C)N,1.6690693932083378,-0.2656581869581713,0.0,H17C13N3
CC(=O)c1cn(C)cc(c1=c1ccn(C)cc1)C(C)(C)C,2.419004786626465,0.3551790189718304,0.0,H24C18N2O
Cn1ccc(=c2cc(n(C)cc2N(=O)=O)OCCOCCOC)cc1,2.297344760170381,1.3839901900806582,0.0,H23C17N3O5
CC(=O)c1cn(C)cc(c1=c1ccn(C)cc1)OC,2.081127104092593,0.4259457438580285,0.0,H18C15(NO)2
CC(=O)c1cc(=c2ccn(C)cc2)cc(C(=O)C)n1C,2.4640329492372985,0.9732462529733312,0.0,H9C8NO
CC(=O)c1cn(C)c(cc1=c1ccn(C)cc1)O,2.05326689743888,0.4850946173806734,0.0,H8C7NO
CC(=O)c1cn(C)c(cc1=c1ccn(C)cc1)Cl,2.2491500605188777,1.260480747366819,0.0,H15C14N2ClO
CC(=O)c1cc(=c2ccn(C)cc2)cc(N(C)C)n1C,2.145755901337543,0.8292334923913587,0.0,H21C16N3O
CC(=O)c1cn(C)c(cc1=c1ccn(C)cc1)OCCOC,1.922600809071446,0.5137114501681936,0.0,H22C17N2O3
CC(=O)c1cc(=c2ccn(C)cc2)c(cn1C)N,1.9632782659697117,0.7792116353899474,0.0,H17C14N3O
Cc1cn(C)c(cc1=c1ccn(C)cc1)C#N,2.083490369242645,0.4979293155643973,0.0,H15C14N3
CC(=O)Cn1ccc(=c2ccn(C)cc2C(C)(C)C)cc1,1.932056939114409,0.3329539388920239,0.0,H24C18N2O
CC(=O)c1cc(=c2ccn(C)cc2)cc(n1C)OCCOC,2.2569073757018487,0.8806735876765743,0.0,H22C17N2O3
CC(=O)c1cc(=c2ccn(C)cc2)cc(N)n1C,2.033931889456289,0.8497381789908105,0.0,H17C14N3O
CC(=O)C1=C[C](C=CN1C)[C]1C=CN(C)C=C1C(C)(C)C,2.004104925612046,0.8120746848995624,0.0,H24C18N2O
Cc1cn(C)cc(c1=c1ccn(C)cc1)C(=O)O,2.0908153173091706,0.27294408358066,0.0,H8C7NO
CC1=C[C]([C]2C=CN(C)C=C2)C(=CN1C)O,1.790285773423966,-0.1554252818335952,0.0,H16C13N2O
CC(=O)c1cc(=c2ccn(C)cc2)c(cn1C)N(C)C,2.0438639574837,0.7698551316658269,0.0,H21C16N3O
C=CCn1ccc(=c2ccn(C)c(c2)N)cc1,1.6975410178907624,-0.4137049998193105,0.0,H17C14N3
CC(=O)C1=C[C](C=CN1C)[C]1C=CN(C)C=C1N,1.9665204833087049,0.8287849862004806,0.0,H17C14N3O
CC(=O)Cn1ccc(=c2ccn(C)cc2F)cc1,2.0821968352916884,0.3503494663760649,0.0,H15C14N2OF
CC(=O)C1=CN(C)C=C[C]1[C]1C=CN(C)C=C1O,2.0825695958788857,0.4514881093251461,0.0,H8C7NO
CNCn1ccc(=c2ccn(C)c(c2)N)cc1,1.6945233135134914,-0.4580109750262635,0.0,H18C13N4
C#CCn1ccc(=c2ccn(C)cc2)cc1C(=O)C,2.307282044626481,0.8985715298236756,0.0,H16C16N2O
CC(=O)C1=CN(C)C=C[C]1[C]1C=CN(C)C=C1F,2.246714157301176,0.5190878781118955,0.0,H15C14N2OF
Cn1ccc(=c2cc(n(C)cc2C#N)N(=O)=O)cc1,2.829427098780434,1.7454639411240351,0.0,H12C13(N2O)2
Cc1cn(ccc1=c1ccn(C)cc1)CC(=O)C,1.9017562114691828,0.2879765717676492,0.0,H18C15N2O
CC(=O)Cn1ccc(=c2ccn(C)cc2)cc1,1.9617064575228145,0.3170389474267723,0.0,H16C14N2O
Cn1ccc(=c2ccn(cc2C(Cl)(Cl)Cl)COCCOC)cc1,2.2748360612764373,3.2977085791513674,0.0,H19C16N2Cl3O2
CC(=O)Cn1ccc(=c2ccn(cc2)COCCOC)cc1,2.153487765715545,0.33698540881378,0.0,H22C17N2O3
Cn1ccc(=c2ccn(cc2)CN(=O)=O)cc1C(Cl)(Cl)Cl,2.4371440338814865,3.496387450702605,0.0,H12C13N3Cl3O2
CC(=O)c1cn(C)ccc1=c1ccn(cc1)COCCOCCOC,2.29925527687883,0.4931011044842308,0.0,H26C19(NO2)2
CC(=O)c1c(c(=c2ccn(C)cc2)ccn1C)Cl,2.1814999561152946,1.0169188369633049,0.0,H15C14N2ClO
CC(=O)C1=CN(C)C(=C[C]1[C]1C=CN(C)C=C1)C(=O)C,2.4035859212759534,0.9743080901513168,0.0,H9C8NO
CC(=O)c1cn(ccc1=c1ccn(C)cc1)CC(Cl)(Cl)Cl,2.2693610464935774,2.313480754333432,0.0,H15C15N2Cl3O
CC(=O)c1cn(C)ccc1=c1ccn(cc1)CN,2.162296256663103,0.4890933329566906,0.0,H17C14N3O
CC(=O)C1=CN(C)C=C[C]1[C]1C=CN(C)C=C1C(=O)C,2.3251662069284067,0.5718238094246773,0.0,H9C8NO
CC(=O)Cn1ccc(=c2ccn(C)c(c2)OCCOC)cc1,1.792907473250671,0.3331692108709831,0.0,H22C17N2O3
C=Cc1cn(C)ccc1=c1ccn(cc1)CC(=O)C,2.096236910708831,0.347986993075756,0.0,H18C16N2O
CC(=O)Cn1ccc(=c2ccn(C)cc2)cc1N(=O)=O,2.5296289941667056,1.690762240393815,0.0,H15C14(NO)3
Cc1cn(C)c(cc1=c1ccn(C)cc1)C(=O)O,2.0527424714869995,0.7255267369961076,0.0,H8C7NO
Cc1cn(C)cc(C)c1=c1ccn(C)cc1,1.5974290795071284,-0.1745382177126884,0.0,H9C7N
CC(=O)Cn1ccc(=c2ccn(C)cc2)cc1C(Cl)(Cl)Cl,2.2561594572194736,3.4390724121927634,0.0,H15C15N2Cl3O
CC(=O)c1cc(=c2ccn(cc2)COC)ccn1C,2.250106031807809,0.9127296781531188,0.0,H18C15(NO)2
C#CCn1ccc(=c2ccn(C)c(c2)C(Br)(Br)Br)cc1,2.3031993818818592,3.658444711234188,0.0,H13C15Br3N2
C#Cc1cn(C)c(cc1=c1ccn(C)cc1)C(=O)C,2.2528538564016345,0.9311087066867914,0.0,H16C16N2O
CC(=O)Cn1ccc(=c2ccn(C)c(c2)C(C)(C)C)cc1,1.9484716132188624,0.2752855660161004,0.0,H24C18N2O
CCc1cn(C)ccc1=c1ccn(cc1)CC(=O)C,1.8828795982895827,0.333301267715433,0.0,H20C16N2O
CC(=O)C1=CN(C)C=C[C]1[C]1C=CN(C)C=C1Cl,2.2225900818135416,0.5214098037300574,0.0,H15C14N2ClO
C=CCn1ccc(=c2ccn(C)cc2)c(c1)C(=O)C,2.179005708968907,0.4778213029145264,0.0,H18C16N2O
Cn1ccc(=c2ccn(cc2C#N)COCCOC)cc1,2.337846638337942,0.3547372612061736,0.0,H19C16N3O2
CC(=O)Cn1ccc(=c2ccn(C)cc2OCCOCCOC)cc1,1.8073949908808573,0.3062817431615259,0.0,H26C19(NO2)2
CC(=O)Cn1ccc(=c2ccn(cc2)CC(Cl)(Cl)Cl)cc1,2.177605996200873,2.2855391938079266,0.0,H15C15N2Cl3O
CC(=O)Cn1ccc(=c2ccn(C)c(c2)C(F)(F)F)cc1,2.235725272593845,0.309074681497441,0.0,H15C15N2OF3
CC1=CN(C)[CH][C]([C]1[C]1C=CN(C)C=C1)N(=O)=O,2.386959754848794,1.253967533929972,0.0,H15C13N3O2
Cn1ccc(=c2ccn(cc2)CC(Cl)(Cl)Cl)cc1,2.0524916315058364,2.2855669140422834,0.0,H13C13N2Cl3
CC(=O)Cn1ccc(=c2ccn(C)cc2)c(c1)C(=O)C,2.260236857231212,0.5714667552507309,0.0,H9C8NO
Cc1cc(=c2ccn(C)cc2)ccn1CC(=O)C,1.917957194576593,0.2296799479023321,0.0,H18C15N2O
Cc1c(=c2ccn(C)cc2)ccn(C)c1C(Cl)(Cl)Cl,2.3842491227784195,3.572456604882609,0.0,H15C14N2Cl3
C#Cc1c(C(=O)C)c(=c2ccn(C)cc2)ccn1C,2.1763396600232228,0.972441027309833,0.0,H16C16N2O
Cn1ccc(=c2ccn(cc2)CC(F)(F)F)cc1O,1.9645536662515952,-0.2972344536632589,0.0,H13C13N2OF3
CC(=O)Cn1ccc(=c2ccn(C)cc2)c(c1)N,1.8458790143318768,0.3147196885271115,0.0,H17C14N3O
CC(=O)c1c(=c2ccn(C)cc2)ccn(C)c1F,2.283539252328046,0.3340007526654518,0.0,H15C14N2OF
C=Cc1c(C(=O)C)c(=c2ccn(C)cc2)ccn1C,2.12445567360337,0.899980581541604,0.0,H18C16N2O
CC[C]1[C](C(=O)C)C(=c2ccn(C)cc2)C=CN1C,2.1130272352434987,0.325044465812971,0.0,H20C16N2O
CC(=O)Cn1ccc(=c2ccn(C)cc2)cc1C(=O)C,2.1704299488243124,0.9306180527797552,0.0,H9C8NO
C#Cc1cn(ccc1=c1ccn(C)cc1)CC(C)(C)C,1.9906226236977087,0.1475283827436215,0.0,H11C9N
Cn1ccc(=c2ccn(cc2C(Cl)(Cl)Cl)COCCOCCOC)cc1,2.267607751733158,3.3007160112261773,0.0,H23C18N2(ClO)3
CC(=O)c1c(=c2ccn(C)cc2)ccn(C)c1C(C)(C)C,2.1360353990909062,0.4341361363818579,0.0,H24C18N2O
Cn1ccc(=c2ccn(cc2c2ccccc2)COCCOCCOC)cc1,1.9834383258363235,-0.1184239549969787,0.0,H28C23N2O3
Cc1c(c2ccccc2)c(=c2ccn(C)cc2)ccn1C,1.7866149441339076,-0.3645157458544417,0.0,H20C19N2
Cc1cc(=c2ccn(C)cc2)c(cn1C)C(F)(F)F,2.0226883279625327,-0.1398721147001196,0.0,H15C14N2F3
CC(=O)Cn1ccc(=c2ccn(C)cc2)cc1O,1.915961982440058,0.1975966950209113,0.0,H8C7NO
Cc1cc(=c2ccn(cc2)CN(=O)=O)ccn1C,2.145290232927073,1.6319327795368737,0.0,H15C13N3O2
CC(=O)c1c(=c2ccn(C)cc2)ccn(C)c1Cl,2.265063098200335,2.745740408846905,0.0,H15C14N2ClO
CC(C)(C)Cn1ccc(=c2ccn(cc2)COC)cc1,1.9862182816264975,-0.4415538838169595,0.0,H24C17N2O
CC(C)(C)Cn1ccc(=c2ccn(C)cc2)cc1O,1.8082585169446248,-0.468453629301075,0.0,H22C16N2O
CC(C)(C)Cn1ccc(=c2ccn(C)cc2)cc1N(=O)=O,2.523183950690145,1.59977293477059,0.0,H21C16N3O2
CC(C)(C)CN1C=C[C]([C]2C=CN(C)C=C2)C(=C1)O,1.8521785422104584,-0.231104989414598,0.0,H22C16N2O
C#CCn1ccc(=c2ccn(C)cc2N(=O)=O)cc1,2.539147411074373,1.3777399229635194,0.0,H13C14N3O2
CC(C)(C)Cn1ccc(=c2ccn(C)cc2)c(c1)F,1.9647392506100003,-0.2881855963991255,0.0,H21C16N2F
CC(=O)c1cc(=c2ccn(C)cc2)ccn1C,2.1374064718816954,0.8514708910712216,0.0,H16C14N2O
CCn1ccc(=c2ccn(C)cc2)c(c1)C(=O)C,2.1432952303162893,0.4694039075817273,0.0,H18C15N2O
CC(=O)c1cc(=c2ccn(C)cc2)ccn1CO,2.294953208789229,1.0349467515639843,0.0,H8C7NO
CCn1ccc(=c2ccn(C)cc2)cc1C(=O)C,2.153897283440165,0.8281006144512504,0.0,H18C15N2O
CC(=O)c1cc(=c2ccn(C)cc2)c(cn1C)C(F)(F)F,2.3656898569257465,0.9547452358070588,0.0,H15C15N2OF3
C=CCn1ccc(=c2ccn(C)c(c2)C(Br)(Br)Br)cc1,2.2700295077171178,3.695671936083818,0.0,H15C15Br3N2
CC(=O)C1=C[C](C=CN1C)[C]1C=CN(C)C=C1NC,1.9980327134631808,0.7927004435419804,0.0,H19C15N3O
C#CCn1ccc(=c2ccn(C)cc2C(=O)C)cc1,2.2418920851101576,0.5331648820916599,0.0,H16C16N2O
Cc1cn(C)c(cc1=c1ccn(C)cc1)C(=O)C,2.039028573488031,0.7981547042050807,0.0,H18C15N2O
CCc1cc(=c2ccn(C)cc2)ccn1CC(C)(C)C,1.815335795157444,-0.4626384395618514,0.0,H13C9N
CC(=O)c1cn(C)cc(c1=c1ccn(C)cc1)C(Cl)(Cl)Cl,2.5912412271878567,3.3323368828292588,0.0,H15C15N2Cl3O
CC(=O)c1c(c(=c2ccn(C)cc2)ccn1C)C(Cl)(Cl)Cl,2.3465724556532224,4.02050063892384,0.0,H15C15N2Cl3O
CC(=O)c1c(c(=c2ccn(C)cc2)ccn1C)NC,2.2568971034103016,0.6733993229769113,0.0,H19C15N3O
CC(=O)[C]1[CH]N(C)C(=CC1=c1ccn(C)cc1)C(Cl)(Cl)Cl,2.4561270979844267,3.3789593223351404,0.0,H15C15N2Cl3O
CC(=O)c1cc(=c2ccn(C)cc2)cc(n1C)N(=O)=O,2.825670697855094,1.6998154161025014,0.0,H15C14(NO)3
CC(=O)c1cc(=c2ccn(C)cc2)ccn1CN(C)C,2.1950852395071707,0.8453736689421931,0.0,H21C16N3O
CC(=O)c1cn(C)ccc1=c1ccn(C)cc1,2.151740424798481,0.4793578481272562,0.0,H16C14N2O
CC(C)(C)Cn1ccc(=c2ccn(C)cc2)cc1C#N,2.176568660148041,0.5372950150536782,0.0,H21C17N3
CC(=O)C1=C[C]([C]2C=CN(C)C=C2)C(=CN1C)N(=O)=O,2.733724133844225,1.289845917702769,0.0,H15C14(NO)3
c1cn(ccc1=c1ccn(cc1)CC(F)(F)F)CC(F)(F)F,2.205531420376792,-0.2326545062955118,0.0,H6C7NF3
CC(C)(C)Cn1ccc(=c2ccn(C)cc2)c(c1)C(=O)O,2.1216417607298355,0.3873447114652664,0.0,H22C17(NO)2
Cn1ccc(=c2ccn(cc2)CC(Cl)(Cl)Cl)cc1C(F)(F)F,2.313720222680422,2.2909022255713354,0.0,H12C14N2(ClF)3
C=Cc1cn(ccc1=c1ccn(C)cc1)CC(C)(C)C,1.9800794805029,-0.3654943270870716,0.0,H12C9N
C=Cc1cc(=c2ccn(C)cc2)ccn1CC(C)(C)C,1.9560279342345892,0.2714437893715513,0.0,H12C9N
CC(=O)c1cc(=c2ccn(cc2)CN(=O)=O)ccn1C,2.3726664203655674,1.86864645538808,0.0,H15C14(NO)3
CC(=O)[C]1C(=c2ccn(C)cc2)C=CN(C)[C]1NC,2.177222604126291,0.2181842702135328,0.0,H19C15N3O
c1cn(ccc1=c1ccn(cc1)CC(Cl)(Cl)Cl)CC(Cl)(Cl)Cl,2.2561952292977367,2.392896704660961,0.0,H6C7NCl3
CC(=O)[C]1[CH]N(C)C=C(C1=c1ccn(C)cc1)NC,2.2822531933466963,0.219010568378144,0.0,H19C15N3O
CC(=O)c1cn(ccc1=c1ccn(C)cc1)CO,2.250429890814849,0.5886251518546488,0.0,H8C7NO
CC(=O)c1cc(=c2ccn(C)cc2)ccn1COCCOC,2.3474731388610963,0.8468670051966911,0.0,H22C17N2O3
CC(=O)c1cn(ccc1=c1ccn(C)cc1)COC,2.2470889777810954,0.5281016843924591,0.0,H18C15(NO)2
CC(C)(C)Cn1ccc(=c2ccn(C)cc2)c(c1)C(F)(F)F,2.117161966930871,-0.1866261919916723,0.0,H21C17N2F3
CC(=O)C1=CN(C)C=C[C]1[C]1C=CN(C)C=C1NC,1.9736522033359507,0.5034887482303021,0.0,H19C15N3O
CC(C)(C)Cn1ccc(=c2ccn(C)cc2)c(c1)OC,1.8627843124100765,-0.3578985876541991,0.0,H24C17N2O
CC(C)(C)c1cc(=c2ccn(C)cc2)cc(n1C)OCCOCCOC,1.7753318499431772,-0.2066718688023683,0.0,H32C21N2O3
Cn1ccc(=c2ccn(cc2C(=O)O)CN(=O)=O)cc1,2.356015755534463,1.8263319589146705,0.0,H13C13N3O4
CNc1c(=c2ccn(C)cc2)ccn(C)c1OCCOCCOCCOC,1.841521078554797,-0.2420739363427855,0.0,H31C20N3O4
Cc1cc(=c2ccn(C)cc2)ccn1C,1.7878137879139104,-0.3845965253553003,0.0,H16C13N2
Cn1ccc(=c2ccn(cc2C(Cl)(Cl)Cl)CN(=O)=O)cc1,2.3634034476068337,3.402371621481143,0.0,H12C13N3Cl3O2
CC(C)(C)c1cc(=c2ccn(cc2)COCCOCCOC)ccn1C,2.0518945892559715,-0.2703542840448789,0.0,H32C21N2O3
Cn1ccc(=c2ccn(cc2)CC(F)(F)F)cc1N(=O)=O,2.6528897384392622,1.718667272359744,0.0,H12C13N3O2F3
CC(C)(C)c1cc(=c2ccn(C)cc2)c(cn1C)OCCOCCOC,1.874717467513256,-0.1461845026773516,0.0,H32C21N2O3
CNCn1ccc(=c2ccn(C)cc2)cc1OCCOCCOCCOC,1.5982298234535848,-0.2280524762376443,0.0,H31C20N3O4
Cn1ccc(=c2ccn(cc2)CC(F)(F)F)c(c1)C(F)(F)F,2.281569779444544,-0.0562164457427569,0.0,H6C7NF3
Cn1ccc(=c2c(C#N)cn(C)cc2C(F)(F)F)cc1,2.474090698493092,0.6001608928614588,0.0,H12C14(NF)3
C#CCn1ccc(=c2ccn(C)cc2)cc1O,1.9117997536573967,-0.2586482841310498,0.0,H14C14N2O
CNCn1ccc(=c2ccn(C)cc2)cc1C#N,2.202522491673881,0.5506685557789752,0.0,H8C7N2
C=CCN1C=C[C]([C]2C=CN(C)C=C2)C(=C1)O,1.8636420179442208,-0.215403367854742,0.0,H16C14N2O
CC(C)(C)Cn1ccc(=c2ccn(C)cc2OCCOCCOC)cc1,1.846385135185847,-0.3753294980982899,0.0,H32C21N2O3
Cn1ccc(=c2ccn(CN(=O)=O)c(c2)C(Cl)(Cl)Cl)cc1,2.558870594891778,3.4116468856242137,0.0,H12C13N3Cl3O2
C=CCn1ccc(=c2ccn(C)cc2)cc1C(=O)O,2.1694866825288046,0.7801041415710643,0.0,H16C15(NO)2
C=CCn1ccc(=c2ccn(C)cc2)cc1N,1.725108579719381,-0.3986939133850682,0.0,H17C14N3
C=CCn1ccc(=c2ccn(C)cc2)cc1C(Cl)(Cl)Cl,2.2379373322342877,3.431380989373429,0.0,H15C15N2Cl3
C=CCn1ccc(=c2ccn(C)cc2)cc1c1ccccc1,1.947359707098804,0.2203117650475179,0.0,H10C10N
CNc1cc(=c2ccn(cc2)CO)ccn1C,1.7670378446287942,-0.3797024491199408,0.0,H17C13N3O
C=CCn1ccc(=c2ccn(C)cc2)c(C#N)c1,2.2175475266609284,0.3236365107164602,0.0,H5C5N
CNc1cc(=c2ccn(C)cc2)ccn1CO,1.8040464042511304,-0.4844649953251063,0.0,H17C13N3O
C=CCn1ccc(=c2ccn(C)cc2)cc1C(Br)(Br)Br,2.258157069410663,3.606672582618194,0.0,H15C15Br3N2
Cn1ccc(=c2ccn(CO)c(c2)C(Br)(Br)Br)cc1,2.476389704004396,3.570369589689653,0.0,H13C13Br3N2O
Cn1ccc(=c2ccn(CC(Cl)(Cl)Cl)c(c2)N(=O)=O)cc1,2.7671643830559334,1.6915349756687648,0.0,H12C13N3Cl3O2
Cn1ccc(=c2ccn(cc2N(=O)=O)CN)cc1,2.367874223554827,1.3757882136684203,0.0,H7C6N2O
C#CCn1ccc(=c2ccn(C)cc2)cc1C(Cl)(Cl)Cl,2.251289071211068,3.5143877539099777,0.0,H13C15N2Cl3
C#CCn1ccc(=c2ccn(C)cc2)cc1C(=O)O,2.2941830613177445,0.8438744223763934,0.0,H14C15(NO)2
Cn1ccc(=c2ccn(cc2)CO)c(c1)c1ccccc1,2.010570407559135,-0.2589484420190273,0.0,H18C18N2O
Cn1ccc(=c2ccn(cc2c2ccccc2)CC(Cl)(Cl)Cl)cc1,2.088527607296419,2.259030266375339,0.0,H17C19N2Cl3
C=CCn1ccc(=c2ccn(C)cc2)cc1C(F)(F)F,2.164984613491106,0.3163979968863715,0.0,H15C15N2F3
Cn1ccc(=c2ccn(CN)c(c2)c2ccccc2)cc1,1.9606458448593915,0.1815359158441425,0.0,H19(C6N)3
Cn1ccc(=c2ccn(cc2)CN)cc1C(Br)(Br)Br,2.2412515564006754,3.6528905139944974,0.0,H14C13(BrN)3
c1cn(ccc1=c1ccn(cc1)CN(=O)=O)CC(Cl)(Cl)Cl,2.3698563442972955,2.32178301285021,0.0,H12C13N3Cl3O2
Cn1ccc(=c2ccn(cc2)CN)cc1OCCOCCOC,1.7593047094793293,-0.2961355409737733,0.0,H25C17(NO)3
CC1=CN(C)C=C[C]1[C]1C=CN(C)C=C1C(=O)C,2.043488668970531,0.4833418232970872,0.0,H18C15N2O
CC(=O)Cn1ccc(=c2ccn(C)cc2C(=O)C)cc1,2.2766404290938227,0.3534477246081224,0.0,H9C8NO
CNc1cc(=c2ccn(C)cc2)ccn1CN(C)C,1.7084861085982994,-0.5196832499736046,0.0,H22C15N4
CC(=O)Cn1ccc(=c2ccn(C)c(c2)NC)cc1,1.7654483106940462,0.2866707600383962,0.0,H19C15N3O
Cn1ccc(=c2ccn(cc2)CN)cc1N(=O)=O,2.5062999101479364,1.630573774998629,0.0,H7C6N2O
Cn1ccc(=c2ccn(cc2C(Cl)(Cl)Cl)CC(F)(F)F)cc1,2.316556446168397,3.311947265001072,0.0,H12C14N2(ClF)3
CCc1cc(=c2ccn(cc2)CN(C)C)ccn1C,1.8475661772732568,-0.385314895006013,0.0,H23C16N3
CNc1cc(=c2ccn(C)cc2)cc(n1C)O,1.6368465595311137,-0.5037465329354744,0.0,H17C13N3O
CN(C)c1cc(=c2ccn(C)cc2)ccn1COC,1.9768760965322143,-0.2988515745077165,0.0,H21C15N3O
CCCn1ccc(=c2ccn(cc2)CN(=O)=O)cc1,2.1941922081437952,1.6292597508814652,0.0,H17C14N3O2
Cn1ccc(=c2ccn(cc2)CN(=O)=O)c(c1)N(=O)=O,2.747752467542887,1.823875794101332,0.0,H3C3NO
Cn1ccc(=c2ccn(cc2)CN)c(c1)N(=O)=O,2.440344217795064,1.3249614248867148,0.0,H7C6N2O
Cc1cn(C)cc(c1=c1ccn(C)cc1)C(Cl)(Cl)Cl,2.1402268447433017,3.289479840344575,0.0,H15C14N2Cl3
Cn1ccc(=c2ccn(cc2N(=O)=O)CC(Cl)(Cl)Cl)cc1,2.583145045924175,2.370003185076348,0.0,H12C13N3Cl3O2
CNCn1ccc(=c2ccn(C)c(c2)Cl)cc1,1.9990206635717187,1.2136170326863067,0.0,H16C13N3Cl
CC(=O)c1cn(ccc1=c1ccn(C)cc1)CC(F)(F)F,2.302098218858737,0.5691271966548812,0.0,H15C15N2OF3
C=CCn1ccc(=c2ccn(C)c(c2)c2ccccc2)cc1,1.911837011482567,0.201097877653956,0.0,H10C10N
Cn1ccc(=c2ccn(cc2N(=O)=O)CC(F)(F)F)cc1,2.5781906148418785,1.479060844090418,0.0,H12C13N3O2F3
C=CCn1ccc(=c2ccn(cc2)CN(=O)=O)cc1,2.20870456433986,1.6585229574353435,0.0,H15C14N3O2
CC(=O)c1cn(C)ccc1=c1ccn(cc1)CF,2.41184372183634,0.5947220882640978,0.0,H15C14N2OF
CC(=O)c1cc(=c2ccn(cc2)CN)ccn1C,2.145813962271496,0.8590891315921909,0.0,H17C14N3O
Cn1ccc(=c2ccn(cc2)CO)cc1c1ccccc1,2.016655474360596,0.1959813347544696,0.0,H18C18N2O
C=Cc1cc(=c2ccn(cc2)CN(C)C)ccn1C,1.8902299209745248,0.3926998709917826,0.0,H21C16N3
CC1=C[C](C=CN1C)[C]1C=CN(C)C=C1N,1.6508427511522314,-0.2822367198554274,0.0,H17C13N3
CC1=CN(C)C=C[C]1[C]1C=CN(C)C=C1N(=O)=O,2.300675588661397,1.2559165139224209,0.0,H15C13N3O2
Cn1ccc(=c2ccn(cc2)CO)cc1C(F)(F)F,2.255511216740706,0.2664402607893863,0.0,H13C13N2OF3
CC1=CN(C)C=C[C]1[C]1C=CN(C)C=C1O,1.6745965939895542,-0.1497778285069215,0.0,H16C13N2O
CC1=CN(C)C=C[C]1[C]1C=CN(C)C=C1N(=O)=O,2.354344549342932,1.2361280636047014,0.0,H15C13N3O2
CNCn1ccc(=c2ccn(C)cc2Cl)cc1,1.9854442946285416,-0.0323000121556105,0.0,H16C13N3Cl
Cn1ccc(=c2ccn(cc2)CN)c(c1)C(F)(F)F,2.1148951606897755,-0.1130538237688596,0.0,H14C13(NF)3
CN(C)Cn1ccc(=c2ccn(C)cc2OC)cc1,1.8953718874705372,-0.2577157119107141,0.0,H21C15N3O
CN(C)Cn1ccc(=c2ccn(C)cc2Cl)cc1,2.0121678736191826,-0.0308188584371236,0.0,H18C14N3Cl
CCc1cc(=c2ccn(cc2)CN)ccn1C,1.8179106941257488,-0.3873399607458849,0.0,H19C14N3
CNCn1ccc(=c2ccn(C)cc2OCCOC)cc1,1.86496792528269,-0.2899308474865392,0.0,H23C16N3O2
CCn1ccc(=c2ccn(C)cc2)c(c1)OCCOC,1.8332409564878616,-0.4088590686864335,0.0,H11C8NO
CN(C)Cn1ccc(=c2ccn(C)c(c2)OCCOC)cc1,1.724469865950232,-0.2740376033601932,0.0,H25C17N3O2
Cn1ccc(=c2ccn(cc2)CN)cc1C(Cl)(Cl)Cl,2.189623642648803,3.473126155674981,0.0,H14C13(NCl)3
C=Cc1cn(C)ccc1=c1ccn(cc1)CN(C)C,2.0069364741844766,-0.260352116767899,0.0,H21C16N3
CC(=O)Cn1ccc(=c2ccn(cc2)Cc2ccccc2)cc1,1.9894091755755652,0.2697755601089739,0.0,H20C20N2O
CN(C)Cn1ccc(=c2ccn(C)cc2F)cc1,2.01173549288942,-0.1643049686412268,0.0,H18C14N3F
CC(C)(C)c1cn(C)ccc1=c1ccn(cc1)CO,1.930626175433281,-0.3381855128667665,0.0,H22C16N2O
Cc1cn(C)ccc1=c1ccn(cc1)CN(=O)=O,2.128888625729451,1.6581055592956546,0.0,H15C13N3O2