smiles,IE,EA,charge,formula_pretty
CNc1cccc2c1ON(F)O2,4.363489057455444,3.4784368517954136,0.0,H7C7N2O2F
CC(C)(C)c1ccc2c(c1)[nH]s[nH]2,3.23552698057174,2.5124586163961795,0.0,H14C10SN2
CCN1Oc2ccc(cc2O1)NC,3.42571580783042,-0.6425910517122246,0.0,H12C9(NO)2
C#Cc1ccc(c2c1[nH]s[nH]2)OCCOCCOCCOC,3.312296947625873,0.3149311454704731,0.0,H20C15S(NO2)2
CON1Oc2cccc(c2O1)C(Br)(Br)Br,4.480148012540303,2.774420328490669,0.0,H6C8Br3NO3
CN1Oc2cccc(C#N)c2O1,4.557943388862986,0.772501000641205,0.0,H3C4NO
CNn1c2cc(ccc2[nH]s1)OCCOCCOC,3.421768059169699,1.669641765621782,0.0,H19C12S(NO)3
CC(C)(C)c1ccc2c(c1)[nH]sn2NC,3.452730290116597,1.6646831494268557,0.0,H17C11SN3
COCCOCCOc1cc(cc2c1[nH]s[nH]2)C(Br)(Br)Br,3.2615193760953844,3.166117276524892,0.0,H15C12SBr3N2O3
CCc1cc2c(cc1c1ccccc1)[nH]s[nH]2,3.394644176239672,2.219742002323619,0.0,H14C14SN2
CON1Oc2ccc(cc2O1)C(Br)(Br)Br,4.461256209929706,2.813549098494696,0.0,H6C8Br3NO3
Cc1cccc2c1ON(F)O2,5.312495495594339,3.430136441358264,0.0,H6C7NO2F
COCCOCCOc1cc2c(c(c1)N(=O)=O)[nH]s[nH]2,3.5182771967243758,2.00389610544662,0.0,H15C11SN3O5
CNn1c2ccc(cc2[nH]s1)OCCOC,3.4343028987910658,1.703617262768239,0.0,H15C10SN3O2
CCc1ccc2c(c1)[nH]sn2N(C)C,3.409509412374609,1.5409279117280676,0.0,H15C10SN3
CON1Oc2ccc(cc2O1)C#N,4.626703902767622,0.6890028801513837,0.0,H6C8N2O3
c1cc2c(cc1N)ON(F)O2,4.267938770153341,3.6918957551875793,0.0,H5C6N2O2F
CC(C)(C)c1ccc2c(c1)[nH]sn2C#N,3.889542262202304,3.5556979571134435,0.0,H13C11SN3
C=CN1Oc2cccc(c2O1)C(=O)O,4.359501120304776,0.961497645473719,0.0,H7C9NO4
COCCOCCOCCOc1ccc2c(c1)n(C(Cl)(Cl)Cl)s[nH]2,3.80844778038736,2.690017951966729,0.0,H19C14SN2Cl3O4
COCCOCCOc1cc2c(cc1O)[nH]s[nH]2,3.352542363930843,-0.1561681689403484,0.0,H16C11S(NO2)2
CN1Oc2ccc(cc2O1)N,3.587954236303267,-0.5098459646345872,0.0,H8C7(NO)2
COCCOCCOc1cc(c2c(c1)[nH]s[nH]2)C(=O)O,3.23135360328306,0.9334980076833744,0.0,H16C12SN2O5
C#Cc1ccc2c(c1)[nH]sn2c1ccccc1,3.2506267216936977,2.429365986341145,0.0,H10C14SN2
COCCOCCOc1cc2c(cc1Cl)[nH]s[nH]2,3.557870908561745,1.3254066412206158,0.0,H15C11SN2ClO3
CCc1ccc2c(c1OCCOC)[nH]s[nH]2,3.450649623353093,2.1510080548883708,0.0,H16C11S(NO)2
COCCOc1ccc2c(c1)n(c1ccccc1)s[nH]2,3.1065834843699123,2.4694551657754347,0.0,H16C15S(NO)2
COCCOc1cccc2c1ON(Cl)O2,5.215990143141971,3.941683034293965,0.0,H10C9NClO4
C#CN1Oc2cccc(C)c2O1,4.4442677076163815,4.216701035047299,0.0,H7C9NO2
CC(C)(C)c1ccc2c(c1)[nH]sn2C(=O)O,3.673860294865881,2.937733682827093,0.0,H14C11S(NO)2
CCN1Oc2ccc(C)cc2O1,4.074187896552393,-0.3541699967594467,0.0,H11C9NO2
C#CN1Oc2cccc(c2O1)N(=O)=O,4.908475594843912,2.1549076040260844,0.0,H2C4NO2
CON1Oc2ccc(cc2O1)N(=O)=O,4.748141095196479,2.066666746135161,0.0,H6C7N2O5
COCCOCCOc1cc2c(cc1C#N)[nH]s[nH]2,3.5303127972525545,0.6682084984364338,0.0,H15C12S(NO)3
CNc1cc(cc2c1[nH]s[nH]2)OCCOCCOC,3.374011764850002,2.3003338082358824,0.0,H19C12S(NO)3
CC(C)(C)c1cc2c(cc1N(=O)=O)[nH]s[nH]2,3.5882286331776414,1.8518734508958008,0.0,H13C10SN3O2
CN(C)c1cc2c(cc1OCCOCCOC)[nH]s[nH]2,3.1744695305184,2.2468445352074924,0.0,H21C13S(NO)3
CN1Oc2cccc(c2O1)C(=O)O,4.407795195931248,0.9163382260281652,0.0,H7C8NO4
COc1ccc2c(c1)[nH]sn2c1ccccc1,3.122324015484628,2.309753126720898,0.0,H12C13SN2O
COCCOCCOCCOn1c2ccc(cc2[nH]s1)Cl,3.959594293688133,1.7998465366777965,0.0,H19C13SN2ClO4
c1cc(c2c(c1)ON(N(=O)=O)O2)C(=O)O,4.580358684686507,3.313218273376697,0.0,H4C7(NO3)2
C#CN1Oc2ccc(cc2O1)C(Cl)(Cl)Cl,4.712280809713411,4.478477704303804,0.0,H4C9NCl3O2
CN(C)c1ccc2c(c1)ON(Cl)O2,4.212889367796015,3.744499039171933,0.0,H9C8N2ClO2
c1cc2c(cc1C#N)ON(O)O2,5.108903532507247,0.7085145117867797,0.0,H4C7N2O3
CCN1Oc2ccc(cc2O1)C(Br)(Br)Br,4.37832644819864,2.840247811685549,0.0,H8C9Br3NO2
CN1Oc2cccc(c2O1)C(F)(F)F,4.493094007977197,0.3942190498979472,0.0,H6C8NO2F3
CN1Oc2ccc(cc2O1)C(Br)(Br)Br,4.405829061893746,2.9990995031781496,0.0,H6C8Br3NO2
CN1Oc2cccc(c2O1)C(Cl)(Cl)Cl,4.439836331033439,2.9423781898527523,0.0,H6C8NCl3O2
COCCOCCOCCOc1c(ccc2c1[nH]s[nH]2)Cl,3.5786006577996887,2.2056918913454866,0.0,H19C13SN2ClO4
CN1Oc2ccccc2O1,4.212671418219179,-0.3161131512319115,0.0,H7C7NO2
c1cc(c2c(c1)ON(N(=O)=O)O2)N,4.275971176100574,3.359098944159632,0.0,H5C6N3O4
c1cc2c(cc1C(Br)(Br)Br)ON(Cl)O2,5.373348495597019,3.97831274070777,0.0,H3C7Br3NClO2
c1ccc(cc1)c1cc2c(cc1N(=O)=O)[nH]s[nH]2,3.6022135647195683,1.8531679045896452,0.0,H9C12SN3O2
Cc1ccc2c(c1)n(c1ccccc1)s[nH]2,3.1340399176202483,2.327608461285854,0.0,H12C13SN2
COCCOc1ccc2c(c1)n(C(=O)O)s[nH]2,3.615135674038902,3.0057836748434057,0.0,H12C10S(NO2)2
CC(C)(C)c1ccc2c(c1N)[nH]s[nH]2,3.4611937788082288,2.1886088702827693,0.0,H15C10SN3
COCCOCCOc1cc2c(cc1C(Cl)(Cl)Cl)[nH]s[nH]2,3.540664720605128,2.945259829147836,0.0,H15C12SN2(ClO)3
c1cc2c(cc1C(=O)O)ON(N(=O)=O)O2,4.633016579192917,3.3084599492955022,0.0,H4C7(NO3)2
CON1Oc2cccc(c2O1)O,4.061870788822125,-0.4074689833054434,0.0,H7C7NO4
CC(C)(C)c1cc2c(cc1OC)[nH]s[nH]2,3.2890318756595662,-0.273166898938507,0.0,H16C11SN2O
COc1ccc2c(c1)n(c1ccccc1)s[nH]2,3.0757666465666262,2.3869944439225947,0.0,H12C13SN2O
CN1Oc2cccc(c2O1)O,4.209410789660614,-0.4191330776924586,0.0,H7C7NO3
c1cc2c(cc1C#N)ON(N(=O)=O)O2,4.723443398293602,3.335136087958381,0.0,H3C7N3O4
CCc1ccc2c(c1OCCOCCOC)[nH]s[nH]2,3.478838992510282,2.1562776264487185,0.0,H20C13SN2O3
CN(C)n1c2cc(ccc2[nH]s1)OC,3.1687150303274394,1.2034557686143672,0.0,H13C9SN3O
C#Cc1ccc2c(c1OCCOCCOC)[nH]s[nH]2,3.6125992927860353,2.201235371446819,0.0,H16C13SN2O3
Cc1ccc2c(c1)ON(OC)O2,4.230376379956942,1.463150347942792,0.0,H9C8NO3
C=Cc1ccc2c(c1OCCOCCOCCOC)[nH]s[nH]2,3.46170817737002,2.1969218773025205,0.0,H22C15S(NO2)2
COCCOCCOc1cc2c(cc1OCCOC)[nH]s[nH]2,3.2809854095918127,-0.118707094893034,0.0,H22C14SN2O5
CC(C)(C)c1ccc2c(c1)n(O)s[nH]2,3.869265481827461,1.8267817195497629,0.0,H14C10SN2O
c1cc2c(cc1C(=O)O)ON(O)O2,5.0066214127851705,0.8920439814297425,0.0,H5C7NO5
CN1Oc2ccc(cc2O1)C#N,4.554387184807274,0.6412313556153095,0.0,H3C4NO
CN1Oc2ccc(cc2O1)C(=O)O,4.461910758012527,0.8285070164725767,0.0,H7C8NO4
CN1Oc2ccc(cc2O1)O,3.9877459315481247,-0.2689694096428865,0.0,H7C7NO3
CC(C)(C)c1cc2c(cc1N)[nH]s[nH]2,3.1088277323629883,2.4875368636799977,0.0,H15C10SN3
CNc1ccc2c(c1)ON(F)O2,4.088015549020929,3.431890936147829,0.0,H7C7N2O2F
CN1Oc2ccc(cc2O1)N(=O)=O,4.670794268576719,2.024422952997702,0.0,H6C7(NO2)2
CN1Oc2cccc(c2O1)N(=O)=O,4.6376582698372655,2.071006597228552,0.0,H6C7(NO2)2
CON1Oc2cccc(C#N)c2O1,4.504612020767672,0.8614450034125185,0.0,H6C8N2O3
Cc1cc(cc2c1[nH]s[nH]2)OCCOC,3.321396646633366,2.2294607521485887,0.0,H14C10S(NO)2
c1cc(c2c(c1)ON(C(Br)(Br)Br)O2)C(Br)(Br)Br,4.892242298251949,4.800807068729773,0.0,H3C8Br6NO2
CCc1cc2c(cc1C(C)(C)C)[nH]s[nH]2,3.3495993765805907,2.199385851783154,0.0,H18C12SN2
CC(C)(C)c1ccc2c(c1)n(NC)s[nH]2,3.4672181560577884,1.6242980217044534,0.0,H17C11SN3
COCCOCCOCCOc1ccc(C#N)c2c1[nH]s[nH]2,3.416793099824281,0.4990895899187308,0.0,H19C14SN3O4
CON1Oc2ccc(cc2O1)C(=O)O,4.533159733922366,0.8763663113291842,0.0,H7C8NO5
Cc1cccc2c1ON(OC)O2,4.211243147102868,-0.3702126150568801,0.0,H9C8NO3
COCCOc1cc(cc2c1[nH]s[nH]2)N,3.088975950269378,2.1860592261997227,0.0,H13C9SN3O2
C=Cc1cc2c(cc1N(C)C)[nH]s[nH]2,3.2879223750220263,0.3833212607401948,0.0,H13C10SN3
CC(C)(C)c1cc(c2c(c1)[nH]s[nH]2)N,3.421574896443053,2.226717202467262,0.0,H15C10SN3
COCCOCCOCCOc1cc(cc2c1[nH]s[nH]2)O,3.142904259928037,1.9604930094006705,0.0,H20C13SN2O5
C#Cc1ccc2c(c1)n(c1ccccc1)s[nH]2,3.258761200265872,2.393851758913661,0.0,H10C14SN2
C=Cc1ccc2c(c1)n(c1ccccc1)s[nH]2,3.191221701972245,2.344679237228411,0.0,H12C14SN2
CC(C)(C)c1cc2c(cc1Cl)[nH]s[nH]2,3.471727999387076,-0.0340206831955582,0.0,H13C10SN2Cl
CON1Oc2cccc(c2O1)C(=O)O,4.581146786227327,0.999919509949541,0.0,H7C8NO5
CC(C)(C)N1Oc2ccc(cc2O1)F,4.181279407961119,-0.127656606115488,0.0,H12C10NO2F
CN(C)c1ccc2c(c1)ON(F)O2,3.9961030754289824,3.4488734247584945,0.0,H9C8N2O2F
COCCOCCOc1ccc2c(c1)n(C(F)(F)F)s[nH]2,3.879399207982351,3.25348578641715,0.0,H15C12SN2(OF)3
COCCOc1ccc(c2c1[nH]s[nH]2)C(=O)O,3.0914847391737568,2.279901188268559,0.0,H12C10S(NO2)2
CON1Oc2cccc(c2O1)C(F)(F)F,4.518159507549717,0.4770066757169844,0.0,H6C8N(OF)3
c1cc(C#N)c2c(c1)ON(C(Cl)(Cl)Cl)O2,5.077171469749009,4.739858766284305,0.0,H3C8N2Cl3O2
c1cc(c2c(c1)ON(C(F)(F)F)O2)O,4.7988151274345,3.3413356983634004,0.0,H4C7N(OF)3
CON1Oc2ccc(cc2O1)C(F)(F)F,4.5529915210951,0.3305962820100832,0.0,H6C8N(OF)3
COCCOCCOCCOc1cc(cc2c1[nH]s[nH]2)Cl,3.2663922573497985,2.044944796377968,0.0,H19C13SN2ClO4
COCCOCCOc1ccc2c(c1)n(c1ccccc1)s[nH]2,3.1250124376179884,2.466383207350737,0.0,H20C17SN2O3
c1cc2c(cc1N)ON(C(Cl)(Cl)Cl)O2,3.88621284871042,2.2901120396505577,0.0,H5C7N2Cl3O2
c1ccc2c(c1)ON(C(Cl)(Cl)Cl)O2,4.718417814883287,2.2977080103752088,0.0,H4C7NCl3O2
CON1Oc2cccc(c2O1)N(=O)=O,4.721498570759286,2.125864072249533,0.0,H6C7N2O5
CC(C)(C)c1cc(cc2c1[nH]s[nH]2)O,3.256979363480786,1.8832004531628628,0.0,H14C10SN2O
CC(C)(C)c1ccc2c(c1)n(N(C)C)s[nH]2,3.4177896215165675,1.4947041353276291,0.0,H19C12SN3
c1ccc2c(c1)ON(C(Br)(Br)Br)O2,4.69357864325284,4.866142474923981,0.0,H4C7Br3NO2
CC(C)(C)N1Oc2ccccc2O1,4.094771561468951,-0.3948195130109524,0.0,H13C10NO2
c1cc(c2c(c1)ON(C(F)(F)F)O2)C(=O)O,5.011331801289634,1.108533735021047,0.0,H4C8NO4F3
COCCOCCOc1cc(cc2c1[nH]s[nH]2)C#N,3.309850105427904,2.3260818046925125,0.0,H15C12S(NO)3
c1ccc(cc1)c1ccc2c(c1)n(N)s[nH]2,3.358902616747946,2.635519819586625,0.0,H11C12SN3
Cc1cc(cc2c1[nH]s[nH]2)OCCOCCOCCOC,3.2720504401237123,2.3221722526519444,0.0,H22C14S(NO2)2
CC(C)(C)c1ccc2c(c1)n(N(=O)=O)s[nH]2,4.020599995861266,3.429033346271899,0.0,H13C10SN3O2
CON1Oc2ccc(cc2O1)C(Cl)(Cl)Cl,4.487572761042975,2.738055810639344,0.0,H6C8N(ClO)3
CNn1c2ccc(cc2[nH]s1)N(C)C,3.098974438567529,2.0950552318732663,0.0,H14C9SN4
c1ccc(cc1)c1cccc2c1n(C(=O)O)s[nH]2,3.7719586643266663,2.542483616530808,0.0,H10C13S(NO)2
CN(C)c1ccc2c(c1N(C)C)[nH]s[nH]2,3.2559842105161807,1.927474607376644,0.0,H16C10SN4
c1cc(c2c(c1)ON(C(Cl)(Cl)Cl)O2)O,4.709371352227754,2.293034855205042,0.0,H4C7N(ClO)3
CN(C)c1cccc2c1ON(Cl)O2,4.338487915528821,3.8105169421884058,0.0,H9C8N2ClO2
COCCOCCOc1cccc2c1n(C#N)s[nH]2,3.830440888874,3.086782364423561,0.0,H15C12S(NO)3
c1cc2c(cc1O)ON(C(Cl)(Cl)Cl)O2,4.386949809204088,2.28505294269562,0.0,H4C7N(ClO)3
c1ccc(cc1)c1ccc(c2c1[nH]s[nH]2)N,3.4800541821619846,1.8603967801478576,0.0,H11C12SN3
COCCOCCOn1c2cc(ccc2[nH]s1)F,3.93557368133188,2.6056573421607028,0.0,H15C11SN2O3F
c1cc2c(cc1O)ON(C(F)(F)F)O2,4.467489186941384,-0.1089704018726478,0.0,H4C7N(OF)3
c1cc(c2c(c1)ONO2)O,4.433879935980803,-0.0758941157968364,0.0,H5C6NO3
CN(C)n1c2cc(ccc2[nH]s1)OCCOC,3.223468397312536,2.38857128103482,0.0,H17C11SN3O2
CN1Oc2ccc(cc2O1)C(F)(F)F,4.496337819904147,0.2990282249753364,0.0,H6C8NO2F3
CCc1ccc(c2c1[nH]s[nH]2)N(C)C,3.3593459092349804,1.639790248942154,0.0,H15C10SN3
c1cc(c2c(c1)ON(F)O2)C(Br)(Br)Br,5.578993236494716,2.9364557382883505,0.0,H3C7Br3NO2F
CC(C)(C)c1ccc2c(c1)n(c1ccccc1)s[nH]2,3.163851449893264,2.286848605593696,0.0,H18C16SN2
CNc1cccc2c1n(N(C)C)s[nH]2,3.3011106660902443,1.1679444065463032,0.0,H14C9SN4
CCc1cc(cc2c1[nH]s[nH]2)N(C)C,3.1558291502493376,-0.4069722558255306,0.0,H15C10SN3
c1cc2c(cc1N)ON(C(F)(F)F)O2,3.952317991419113,-0.1361147532064932,0.0,H5C7N2O2F3
c1c(cc2c(c1C(=O)O)ONO2)C(=O)O,4.8521356300239855,1.261056940254639,0.0,H5C8NO6
c1cc2c(cc1N)ON(N)O2,3.7857204080952216,-0.2780245935540733,0.0,H7C6N3O2
CC(C)(C)N1Oc2ccc(cc2O1)Cl,4.209325990822981,-0.0659247300704009,0.0,H12C10NClO2
c1c(cc2c(c1O)ONO2)O,4.177066734711479,-0.2605561885415226,0.0,H5C6NO4
CC(C)(C)c1cc2c(cc1N(C)C)[nH]s[nH]2,3.3355742973632005,-0.2358043491498391,0.0,H19C12SN3
c1c(cc2c(c1C#N)ONO2)C#N,5.099903013547737,1.3111557973112211,0.0,H3C8N3O2
c1cc2c(cc1O)ON(N(=O)=O)O2,4.269352981141855,3.671362700724421,0.0,H4C6N2O5
CN(C)n1c2c(cccc2OCCOC)[nH]s1,3.148714265903982,1.7469905813974038,0.0,H17C11SN3O2
c1cc2c(cc1C(=O)O)ON(C(=O)O)O2,4.879924001344625,1.0000365842075554,0.0,H5C8NO6
c1cc(c2c(c1)ON(C(=O)O)O2)C(=O)O,4.825597893906524,1.1336668303898478,0.0,H5C8NO6
c1ccc2c(c1)ON(O)O2,4.735437882419864,1.6275421465594264,0.0,H5C6NO3
c1cc(c2c(c1)ON(Cl)O2)C(Br)(Br)Br,5.444890431995736,3.980757324339357,0.0,H3C7Br3NClO2
c1cc(c2c(c1)ON(Cl)O2)C(Cl)(Cl)Cl,5.457091232857783,3.991425275280199,0.0,H3C7N(Cl2O)2
c1c(cc2c(c1N)ONO2)N,3.629887297203459,-0.7893664262686797,0.0,H7C6N3O2
c1cc2c(cc1O)ON(N)O2,3.093776887375134,-0.1413878323168318,0.0,H6C6N2O3
COCCOc1ccc2c(c1)ON(Cl)O2,4.872736680297384,3.84423288354592,0.0,H10C9NClO4
CC(=O)c1cc2c(cc1N(=O)=O)ONO2,5.030893561740959,2.222140484443662,0.0,H6C8N2O5
c1cc(c2c(c1)ONO2)N,4.173490769747877,-0.3501459419407182,0.0,H3C3NO
C#Cc1ccc2c(c1)ON(C#C)O2,4.5323119360433335,4.424149591378955,0.0,H5C10NO2
CON1Oc2cccc(c2O1)C(Cl)(Cl)Cl,4.501707978351623,2.6908066793635954,0.0,H6C8N(ClO)3
c1cc2c(cc1N)ONO2,3.758735164441168,-0.1966749397128295,0.0,H3C3NO
C#Cc1ccc2c(c1)ON(Cl)O2,5.187464933807496,3.965615484490263,0.0,H4C8NClO2
c1cc2c(cc1O)ONO2,4.177115505671827,-0.0942988590853928,0.0,H5C6NO3
c1cc(C#N)c2c(c1C#N)ONO2,5.100097985834145,1.6741173280475778,0.0,H3C8N3O2
CNc1ccc2c(c1)ON(Cl)O2,4.295462459061673,3.750852486414806,0.0,H7C7N2ClO2
C=Cc1ccc2c(c1)ON(Cl)O2,4.96224060627137,3.917517728119128,0.0,H6C8NClO2
c1cc2c(cc1O)ON(O)O2,4.380368934656508,-0.1422389445400766,0.0,H5C6NO4
c1c(C#N)c(cc2c1ONO2)C#N,5.086408292359556,1.455819084121322,0.0,H3C8N3O2
CN1Oc2ccc(cc2O1)C(Cl)(Cl)Cl,4.450479353612172,2.7854654999624477,0.0,H6C8NCl3O2
CN(C)[N]OC1=C[C](C=CC1=O)C#N,3.9021670599373466,2.4600840821927705,0.0,H9C9N3O2
CC(=O)N1Oc2cccc(C#N)c2O1,4.831808775261015,1.0417481335585763,0.0,H6C9N2O3
CN[N]Oc1cc(ccc1[O])C#N,3.9252209035308634,2.857034117115836,0.0,H7C8N3O2
c1c(c(cc2c1ONO2)O)O,3.930003102882984,-0.06953303304399,0.0,H5C6NO4
c1cc2c(c(C#N)c1C#N)ONO2,5.10159473167514,1.522185679246468,0.0,H3C8N3O2
c1cc2c(cc1C#N)ONO2,4.780295299043791,0.7431411855082843,0.0,H4C7(NO)2
CON1Oc2ccc(cc2O1)O,4.202286588131392,-0.2273803877091267,0.0,H7C7NO4
c1cc2c(cc1C(=O)O)ONO2,4.6828762100863965,0.8941352878478939,0.0,H5C7NO4
c1ccc2c(c1)ON(C(=O)O)O2,4.650150725008279,0.7443178275148967,0.0,H5C7NO4
c1cc(C#N)c2c(c1)ONO2,4.776837439650626,0.8891240203443886,0.0,H4C7(NO)2
c1cc2c(c(c1O)O)ONO2,4.27169245810328,-0.0185092800988058,0.0,H5C6NO4
c1cc(c2c(c1)ONO2)C(=O)O,4.622537970511621,1.017752112123708,0.0,H5C7NO4
c1cc(C#N)c2c(c1)ON(Cl)O2,5.534893409339565,4.033868816297035,0.0,H3C7N2ClO2
c1c(c(cc2c1ONO2)C(=O)O)C(=O)O,4.843971232539479,1.3615020847588313,0.0,H5C8NO6
c1ccc2c(c1)ON(C(F)(F)F)O2,4.8064634365415255,-0.0882479071937267,0.0,H4C7NO2F3
c1cc(c2c(c1O)ONO2)O,4.4776370630184825,-0.2541308052881503,0.0,H5C6NO4
c1cc2c(cc1C#N)ON(C(F)(F)F)O2,5.171151510535855,0.8142496499945993,0.0,H3C8N2O2F3
CN[N]Oc1cccc(C#N)c1[O],3.873022712706734,2.891196398633474,0.0,H7C8N3O2
CCN1Oc2cccc(c2O1)Cl,4.365050580001116,1.2007859291275964,0.0,H8C8NClO2
Cc1ccc2c(c1Cl)ONO2,4.50265816721876,1.1969875818518632,0.0,H6C7NClO2
c1c(cc2c(c1Cl)ONO2)F,4.684966055248514,1.3114438270909887,0.0,H3C6NClO2F
c1cc(c2c(c1)ON(C(F)(F)F)O2)Cl,4.997070034727221,1.2933488037757344,0.0,H3C7NClO2F3
c1cc2c(c(c1N(=O)=O)N(=O)=O)ONO2,5.232088751579431,2.634196094609797,0.0,HC2NO2
CCc1ccc2c(c1Cl)ONO2,4.494418658146605,1.2152438815988718,0.0,H8C8NClO2
c1cc2c(c(C#N)c1C(=O)O)ONO2,5.006148179608863,1.5250266865019513,0.0,H2C4NO2
COc1cc(c2c(c1)ONO2)Cl,4.35581913706992,1.2401372854961663,0.0,H6C7NClO3
CCc1ccc(c2c1ONO2)N(=O)=O,4.786208270170027,2.0749325958255214,0.0,H4C4NO2
COCCOc1cc(c2c(c1)ONO2)Cl,4.293669049269374,1.321385062639456,0.0,H10C9NClO4
CN1Oc2cccc(c2O1)Cl,4.396689748534845,1.2144350749200383,0.0,H6C7NClO2
CCc1cc(cc2c1ONO2)F,4.433109285100363,0.0054688226387953,0.0,H8C8NO2F
c1cc2c(cc1C(F)(F)F)ON(N(=O)=O)O2,4.675170985652221,3.318737185568898,0.0,H3C7N2O4F3
c1cc(c2c(c1Cl)ONO2)F,4.817312207114446,1.2754167848048383,0.0,H3C6NClO2F
CC(=O)c1cccc2c1ON(C#N)O2,5.090464383143262,1.314699329026189,0.0,H6C9N2O3
C#Cc1ccc(CC)c2c1ONO2,4.501506951526244,0.5252428944964778,0.0,H9C10NO2
C#Cc1cccc2c1ON(C(Br)(Br)Br)O2,4.817692480742698,4.934100261155981,0.0,H4C9Br3NO2
Cc1cc(C)c2c(c1)ONO2,4.236806756498117,-0.2578485878188075,0.0,H9C8NO2
C=Cc1cc(C=C)c2c(c1)ONO2,4.2981565493351805,0.653445960784302,0.0,H9C10NO2
CCc1cc(CC)c2c(c1)ONO2,4.24098649036714,-0.4224428282435837,0.0,H13C10NO2
COc1cc(c2c(c1)ONO2)OC,4.159963239797071,-0.1209894197803804,0.0,H9C8NO4
COCCOc1ccc2c(c1Cl)ONO2,4.419762650990014,1.3776754728038214,0.0,H10C9NClO4
c1cc2c(c(c1N)Cl)ONO2,3.928453994174197,1.3271575876475254,0.0,H5C6N2ClO2
CON1Oc2cccc(c2O1)Cl,4.326730023503478,1.208850937038369,0.0,H6C7NClO3
CN(C)c1c(ccc2c1ONO2)C#N,4.238348357584618,0.6535233907794464,0.0,H9C9N3O2
CCc1ccc(c2c1ONO2)Cl,4.555839094454859,1.2120916006075275,0.0,H8C8NClO2
CCc1ccc2c(c1C=C)ONO2,4.329607891298656,0.4755936701854808,0.0,H11C10NO2
C=Cc1cc(cc2c1ONO2)F,4.496572300396656,0.7254443871912373,0.0,H6C8NO2F
c1cc2c(cc1C(Br)(Br)Br)ON(N(=O)=O)O2,4.581069372559432,2.8759383470984177,0.0,H3C7Br3(NO2)2
C=Cc1c(C)ccc2c1ONO2,4.333295738584274,0.5014320165970276,0.0,H9C9NO2
CCc1c(ccc2c1ONO2)O,4.136267256522478,-0.4426591285959147,0.0,H9C8NO3
c1ccc(cc1)c1ccc2c(c1)ON(N(=O)=O)O2,4.362964759396709,3.239173423016473,0.0,H4C6NO2
c1c(cc2c(c1Cl)ONO2)C(F)(F)F,4.889444859110517,0.6588905940603582,0.0,H3C7NClO2F3
C#Cc1c(ccc2c1ONO2)N(=O)=O,4.952051270929223,2.168450356022368,0.0,H2C4NO2
c1cc2c(cc1O)ON(C(Br)(Br)Br)O2,4.365119914605748,2.4993463294464164,0.0,H4C7Br3NO3
c1cc2c(cc1C#N)ON(C(Br)(Br)Br)O2,5.05105992644676,2.5417090172937606,0.0,H3C8Br3(NO)2
c1cc2c(c(c1C(=O)O)Cl)ONO2,4.826239467585401,1.0535164747576349,0.0,H4C7NClO4
c1cc2c(c(c1N(=O)=O)Cl)ONO2,5.002101569270598,2.1200622786760506,0.0,H3C6N2ClO4
C=Cc1cc(cc2c1ONO2)OC,4.111507212897413,0.5652294870174956,0.0,H9C9NO3
C=Cc1cc(cc2c1ONO2)N(=O)=O,4.87774995872096,2.0871612339084096,0.0,H3C4NO2
c1cc2c(cc1C(=O)O)ON(C(Br)(Br)Br)O2,4.95101439472055,4.7725023505860005,0.0,H4C8Br3NO4
CN(C)c1c(ccc2c1ONO2)O,3.8311455521521567,-0.1740352288928988,0.0,H10C8N2O3
CCc1cc(cc2c1ONO2)N(=O)=O,4.838694654046412,2.047306434285565,0.0,H4C4NO2
C=Cc1c(ccc2c1ONO2)N(=O)=O,4.811858183192816,2.05744100943557,0.0,H3C4NO2
c1cc2c(cc1N)ON(N(=O)=O)O2,4.016087183770287,3.3997717533544347,0.0,H5C6N3O4
c1cc2c(c(c1O)Cl)ONO2,4.373636106299818,1.252966318273684,0.0,H4C6NClO3
C=Cc1c(ccc2c1ONO2)C(Br)(Br)Br,4.658287304302212,2.983307958894875,0.0,H6C9Br3NO2
C#Cc1cc(C=C)c2c(c1)ONO2,4.469092114324303,0.6889347836655362,0.0,H7C10NO2
c1cc(c2c(c1)ONO2)Cl,4.619338692738529,1.2210304449632532,0.0,H4C6NClO2
COc1ccc2c(c1Cl)ONO2,4.405372386832459,1.3782958841889923,0.0,H6C7NClO3
CCc1c(ccc2c1ONO2)N,3.720365709091857,-0.3408321437604171,0.0,H5C4NO
CC(=O)c1c(ccc2c1ONO2)C(=O)O,4.808979548035131,1.3746555643061584,0.0,H7C9NO5
CCc1c(ccc2c1ONO2)C#N,4.709549701082869,0.6743213643909258,0.0,H8C9(NO)2
COc1ccc2c(c1OC)ONO2,4.19452959131886,0.0071685028247885,0.0,H9C8NO4
CCc1ccc(CC)c2c1ONO2,4.303403671504929,-0.5378051663014047,0.0,H13C10NO2
c1cc2c(c(c1C#N)N)ONO2,4.477793286294036,0.5509154174575088,0.0,H5C7N3O2
CNc1ccc2c(c1Cl)ONO2,3.819092016599461,1.332565812097164,0.0,H7C7N2ClO2
c1cc2c(c(c1C(F)(F)F)Cl)ONO2,4.896251345956989,1.4212564578352611,0.0,H3C7NClO2F3
c1c(cc2c(c1Cl)ONO2)C(Cl)(Cl)Cl,4.830067771874019,2.771579509005824,0.0,H3C7N(Cl2O)2
C#Cc1c(ccc2c1ONO2)C#N,4.866136654383444,1.1441966971484363,0.0,H4C9(NO)2
c1c(cc2c(c1C(F)(F)F)ONO2)C(F)(F)F,4.992864101748273,0.900118502440455,0.0,H3C8N(OF3)2
C#Cc1ccc2c(c1Cl)ONO2,4.623367351725028,0.6470629619849206,0.0,H4C8NClO2
C=Cc1ccc2c(c1Cl)ONO2,4.426301097542455,0.6074239323075745,0.0,H6C8NClO2
C=Cc1cccc2c1ON(C(=O)O)O2,4.649776982094044,0.6856892465344573,0.0,H7C9NO4
CC(=O)c1c(ccc2c1ONO2)C#N,4.925106365431565,1.5969412066020596,0.0,H6C9N2O3
C=Cc1ccc(c2c1ONO2)F,4.644055521961127,0.5573477858721163,0.0,H6C8NO2F
C=Cc1cc(C)cc2c1ONO2,4.319576945259177,0.5362616736343626,0.0,H9C9NO2
CCc1ccc(C)c2c1ONO2,4.304295954546978,-0.3216804153293195,0.0,H11C9NO2
COCCOc1ccc(c2c1ONO2)Cl,4.643708734639949,1.1927953280333896,0.0,H10C9NClO4
c1cc2c(c(c1N)N)ONO2,3.664939684860292,-0.4778593965187609,0.0,H7C6N3O2
Cc1ccc2c(c1C)ONO2,4.265923277370893,-0.2829571929418306,0.0,H9C8NO2
c1cc(c2c(c1N(=O)=O)ONO2)N(=O)=O,5.249502894371835,2.8189708823498223,0.0,HC2NO2
c1cc2c(c(c1C(F)(F)F)C(F)(F)F)ONO2,4.990825593574845,0.9644521241985786,0.0,H3C8N(OF3)2