smiles,IE,EA,charge,formula_pretty
CNC1=COC(=CC1)O,3.4593128381598945,-0.4835654468410211,0.0,H9C6NO2
CNC1=CCC(=CO1)N(=O)=O,4.074347235533059,1.8636707041892808,0.0,H8C6N2O3
CNC1=COC=CC1,3.367724569161146,-0.7770290134016249,0.0,H9C6NO
CC1=C(O)OC=CC1,4.028524527720583,-0.5016619150814221,0.0,H4C3O
CO[C@@H]1C=COC(=C1)O,4.869795722912022,-0.4842610405616141,0.0,H8(C2O)3
CC1=C(CC=CO1)N,3.3136032627586247,-0.7277722724851627,0.0,H9C6NO
CN[C@@H]1C=COC=C1O,4.15633715690783,-0.5184198580740484,0.0,H9C6NO2
C=CC1=CCC=C(OC)O1,4.027457909501754,0.1558097238736082,0.0,H5C4O
CNc1cc[nH]c1,3.215506542315416,-0.8981911313916497,0.0,H8C5N2
CNc1c[nH]cc1[C]([NH])O,3.652511454001433,-0.4239661704927129,0.0,H9C6N3O
CCc1c[nH]cc1N(=O)=O,5.009053694169415,1.5535837168314175,0.0,H4C3NO
C#Cc1ccc(C#N)[nH]1,4.870057099136465,0.6759271272017942,0.0,H4C7N2
c1ccc(cc1)c1cc(C#N)c[nH]1,4.399888000441569,0.1198871107186279,0.0,H8C11N2
c1ccc(cc1)c1cc(C(=O)N)[nH]c1,4.315000991873239,0.2107028131555126,0.0,H10C11N2O
COc1c[nH]cc1OC,3.918087099112745,-0.7302329217349324,0.0,H9C6NO2
c1ccc(cc1)c1cc[nH]c1C#N,4.664018751005278,0.5120308914261842,0.0,H8C11N2
C=Cc1cc[nH]c1C(=O)O,4.733963697535364,0.7751136907805631,0.0,H7C7NO2
COc1ccc([nH]1)N(=O)=O,4.778738595635877,1.680375119114251,0.0,H6C5N2O3
CC1=C[C@@H](C=CO1)N,4.564379251223363,-0.7407710553165088,0.0,H9C6NO
CN(C)c1cc[nH]c1N(=O)=O,4.180027727837659,1.5154834800319803,0.0,H9C6N3O2
CCc1cc(c[nH]1)OC,3.672754851449645,-0.8956247278223599,0.0,H11C7NO
CCc1c(C)cc[nH]1,3.908461488404646,-0.9100801632397632,0.0,H11C7N
CNc1cc(F)n(C)c1,3.196514947437754,-0.865138244384434,0.0,H9C6N2F
c1c(c(c[nH]1)N)N,3.3402444919353003,-0.7115669301132583,0.0,H7C4N3
CN(C)c1c[nH]cc1N(=O)=O,3.854251432075762,1.4787082090439072,0.0,H9C6N3O2
Cn1cc(cc1N(=O)=O)C(=O)O,5.733135502794175,1.97523911682365,0.0,H3C3NO2
c1ccc(cc1)c1c(cc[nH]1)O,3.714672965135469,-0.2407067683929198,0.0,H9C10NO
CNc1cc(cn1C)F,3.284204897257587,-0.7047470498222537,0.0,H9C6N2F
Cn1c(ccc1OC)C(=O)O,4.247846219007988,-0.0335357463485705,0.0,H9C7NO3
C1=COC(=C[C@@H]1O)F,5.209343476911817,-0.2047247282956958,0.0,H5C5O2F
Cn1ccc(C#N)c1O,4.393175066331969,-0.2070791443042252,0.0,H6C6N2O
c1c(c(c[nH]1)C(=O)O)[C]([NH])O,5.31106279446758,0.588375751356216,0.0,H6C6N2O3
Cn1cc(c(c1)F)F,4.683369043621132,-1.0327625050562346,0.0,H5C5NF2
C#Cc1cn(C)cc1C#C,4.713400160875244,-0.0385825791858223,0.0,H7C9N
c1c(c[nH]c1C(=O)O)C(=N)O,5.203547928350963,0.5825272358357325,0.0,H6C6N2O3
CCc1cn(C)cc1c1ccccc1,3.969672984825229,-0.3242890917867043,0.0,H15C13N
CNc1cc([nH]c1)OC,2.962311527191196,-1.0419316148676443,0.0,H10C6N2O
CNc1cc[nH]c1N,2.7437211935444794,-0.544395164821617,0.0,H9C5N3
C=Cc1cc(cn1C)c1ccccc1,3.7981035333647015,0.0358480714581674,0.0,H13C13N
CCc1c(cc[nH]1)O,3.72188026750664,-0.5535678529289725,0.0,H9C6NO
CN(C)c1cc(C(=O)O)[nH]c1,3.450015173607972,0.4254868456351688,0.0,H10C7(NO)2
CN(C)c1ccn(C)c1N(C)C,2.8134567702432838,-0.9454908894480468,0.0,H17(C3N)3
C=CC1=CCC=C(NC)O1,3.507695650108508,0.0814756409923576,0.0,H11C8NO
CNc1cc(c[nH]1)[C]([NH])O,3.542749817391814,-0.4528703772633888,0.0,H9C6N3O
c1c(c[nH]c1C(=O)N)N,3.682201884726601,0.1103639182198095,0.0,H7C5N3O
C=Cc1c(cc[nH]1)F,4.076707439400343,-0.1718924766286362,0.0,H6C6NF
c1ccc(cc1)c1cc(c[nH]1)[C]([NH])O,4.303605933715152,0.0878943710682507,0.0,H10C11N2O
c1ccc(cc1)c1ccc(C(=O)N)[nH]1,4.2454171349651,0.5420287373177417,0.0,H10C11N2O
Cc1c(cc[nH]1)N(=O)=O,4.982592416593979,1.5259497918828857,0.0,H6C5(NO)2
Cc1cc[nH]c1c1ccccc1,3.881276431558581,-0.1658360879031533,0.0,H11C11N
c1cc([nH]c1N)N(=O)=O,4.272688068216302,1.5401992398470612,0.0,H5C4N3O2
Cn1ccc(c1N)OC,2.940087728762228,-0.6432735322654479,0.0,H10C6N2O
c1cc([nH]c1C(=O)N)O,4.220494568627691,-0.0357193211842967,0.0,H6C5(NO)2
c1c(C#N)[nH]cc1N(=O)=O,5.802966537030079,1.923926719122028,0.0,H3C5N3O2
Cc1c[nH]cc1F,4.431426157605165,-0.9267002506407152,0.0,H6C5NF
c1c(c(c[nH]1)O)N(=O)=O,4.733608295094745,1.5011086556129158,0.0,H4C4N2O3
Cn1cccc1N(=O)=O,5.340872949840195,1.7133838121113514,0.0,H6C5(NO)2
C#Cc1ccn(C)c1C#N,4.958065253436507,0.5396365818447522,0.0,H3C4N
c1ccc(cc1)c1cc(c[nH]1)O,3.750721458157932,-0.0183526214426819,0.0,H9C10NO
Cn1cc(cc1F)F,4.430183734797174,-0.8085265548528695,0.0,H5C5NF2
c1c[nH]c(c1C(=O)O)N(=O)=O,6.014846056333772,2.5542168359912467,0.0,H4C5(NO2)2
CCc1cc[nH]c1NC,3.014821179521823,-0.7497185773849195,0.0,H12C7N2
c1ccc(cc1)c1cc[nH]c1c1ccccc1,3.9378672690123495,0.1483260871806124,0.0,H13C16N
c1c[nH]c(c1O)C(=O)O,4.756554664608848,0.0996527637758846,0.0,H5C5NO3
COc1cc(c[nH]1)N,3.123400625723298,-0.7689244945617246,0.0,H8C5N2O
C#Cc1cc[nH]c1NC,3.288467881633187,-0.7216250331115588,0.0,H8C7N2
Cc1ccc([nH]1)OC,3.5446031656971173,-0.8422545807829009,0.0,H9C6NO
c1ccc(cc1)c1c[nH]cc1[C]([NH])O,4.415558497622987,0.0193613361640019,0.0,H10C11N2O
c1c(c(c[nH]1)N(=O)=O)C(Cl)(Cl)Cl,5.841292751365108,2.2371544109424577,0.0,H3C5N2Cl3O2
CCc1c[nH]cc1C(Cl)(Cl)Cl,4.640562780297477,2.4569235371032847,0.0,H8C7NCl3
Cc1cc(C(=O)N)[nH]c1,4.574901115114335,0.1317256028629345,0.0,H8C6N2O
Cc1ccc(c2ccccc2)[nH]1,3.7522510862323535,-0.1154429587790217,0.0,H11C11N
C#Cc1cc(c[nH]1)OC,3.945705497247764,0.1001255506867893,0.0,H7C7NO
C#C[C@@H]1C=COC=C1N,3.725878681039467,0.1047492029079877,0.0,H7C7NO
C=C[C@@H]1C=COC=C1N(=O)=O,5.297607211415743,1.9028114689332143,0.0,H7C7NO3
COC1=COC=C[C@H]1c1ccccc1,4.145014285111392,-0.4268870241088733,0.0,H6C6O
CC1=C[C@@H](C=CO1)C(Cl)(Cl)Cl,4.882019939142628,2.20716607078939,0.0,H7C7Cl3O
CNc1cc[nH]c1O,3.188913665049404,-0.6893660545541933,0.0,H8C5N2O
CNc1cc(cn1C)O,2.9885603437211103,-0.843646502933916,0.0,H10C6N2O
COc1cc[nH]c1,3.986622610247287,-0.7771069440826976,0.0,H7C5NO
c1ccc(cc1)C1=COC=C(C1)O,3.945729304486668,0.1321248646123423,0.0,H10C11O2
COC1=CCC=C(C(=N)O)O1,4.31479502346483,0.5628691606958456,0.0,H9C7NO3
C=CC1=C[C@@H](C=CO1)N,4.616485361449668,0.2080031772035,0.0,H9C7NO
C#CC1=C(CC=CO1)N,3.5995334719842504,0.1951697987693479,0.0,H7C7NO
Cc1ccn(C)c1N,3.0926870687304477,-0.6290495704837666,0.0,H5C3N
COC1=C(C#N)OC=CC1,4.387201470964646,0.4826578025782511,0.0,H7C7NO2
C1C=C(C(=O)O)OC(=C1)C(=O)O,5.27927999335734,1.1025345963222208,0.0,H6C7O5
COC1=CCC(=CO1)c1ccccc1,4.035648957816738,0.180591901238222,0.0,H6C6O
COc1cc[nH]c1c1ccccc1,3.6311197552018712,-0.2200307698061805,0.0,H11C11NO
CC1=CCC(=CO1)C#N,4.793540671432856,0.4680935651627806,0.0,H7C7NO
C=CC1=COC(=CC1)N(=O)=O,4.55975890790396,2.070541775090169,0.0,H7C7NO3
C=Cc1ccc(c2ccccc2)[nH]1,3.691888636692602,0.2860573310950713,0.0,H11C12N
c1c[nH]c(c1C(Cl)(Cl)Cl)F,4.8032377201758205,2.5947827752039303,0.0,H3C5NCl3F
CO[C@@H]1C=COC(=C1)C#N,5.383304789965768,0.7855881606043114,0.0,H7C7NO2
Cc1cc(c[nH]1)C(=N)O,4.521864546991855,-0.3603610437407041,0.0,H8C6N2O
CC1=C[C@@H](C=CO1)C#N,4.902279402190834,-0.195144021814849,0.0,H7C7NO
C#CC1=CCC(=CO1)N,3.572287891578162,0.3272530097525306,0.0,H7C7NO
C=CC1=COC=C(C1)N(=O)=O,4.776803324735374,1.936683135599742,0.0,H7C7NO3
Cn1ccc(c2ccccc2)c1c1ccccc1,3.914810179097549,0.0317743531391898,0.0,H15C17N
Cc1c(cc[nH]1)C#N,4.736573163123103,-0.6456884963248739,0.0,H3C3N
CNc1c(ccn1C)O,2.9060682036029903,-0.893429680724148,0.0,H10C6N2O
C#CC1=C(N)OC=CC1,3.7416242054474425,0.0445975817270665,0.0,H7C7NO
COC1=COC(=CC1)C#N,4.2000349903406455,0.5926491957885447,0.0,H7C7NO2
COC1=C[C@@H](C=CO1)C#N,4.566844948185098,-0.1314582704530038,0.0,H7C7NO2
c1c[nH]c(c1C(=N)O)F,4.941306700909626,0.8725198624902988,0.0,H5C5N2OF
CC1=C(CC=CO1)C#N,4.82242526968148,0.4046239946397691,0.0,H7C7NO
C[C@@H]1C=COC=C1C#N,4.955750152435575,0.5128746620190214,0.0,H7C7NO
CC1=COC=C[C@H]1C#N,4.843096982474526,-0.2240236131696291,0.0,H7C7NO
COC1=CCC=C(C#N)O1,4.322333559126127,0.62119369799766,0.0,H7C7NO2
Cn1cc(cc1C(=O)N)C(=N)O,5.005380515483557,0.3268133717498132,0.0,H9C7N3O2
COC1=CCC=C(c2ccccc2)O1,4.010922332495829,0.2487349942872243,0.0,H6C6O
COC1=C[C@@H](C=CO1)c1ccccc1,4.174681586167571,-0.371074053999473,0.0,H6C6O
C#CC1=CCC=C(N)O1,3.801776251124102,0.3845167738414603,0.0,H7C7NO
CO[C@@H]1C=COC=C1C#N,5.519878399023218,0.6943098537591141,0.0,H7C7NO2
COC1=C(CC=CO1)C(=O)N,4.403052744249726,0.3595517550271325,0.0,H9C7NO3
CC[C@@H]1C=COC(=C1)N(=O)=O,5.015036378140939,2.095432493220505,0.0,H9C7NO3
C[C@@H]1C=COC(=C1)C(=N)O,4.7883695397755215,0.5455795970588952,0.0,H9C7NO2
CN(C)[C]1[C](CC=CS1)C#N,4.126372244952654,0.4729726207093336,0.0,H10C8SN2
CC1=COC(=CC1)C(=N)O,4.489273597715146,0.5786882864518703,0.0,H9C7NO2
CC1=C[C@@H](C=CO1)[C]([NH])O,4.796839730631836,-0.0550847079561207,0.0,H9C7NO2
CO[C@@H]1C=COC=C1C(=N)O,5.226059449068634,0.5262972893611733,0.0,H9C7NO3
C=CC1=CCC(=CO1)N,3.4884700291673654,0.0296217503597291,0.0,H9C7NO
CCC1=COC=C(C1)N(=O)=O,5.005461296251815,1.862468412729504,0.0,H9C7NO3
C=CC1=COC=C(C1)N,3.4850941603941465,0.0896295757043845,0.0,H9C7NO
CCC1=C(C(=O)O)SC=CC1,4.311607514611387,0.8110043414468238,0.0,H10C8SO2
COC1=COC=C[C@H]1[C]([NH])O,4.472758412919211,-0.4601686962672828,0.0,H9C7NO3
CCC1=C[C@@H](C=CS1)C(=O)O,4.50656955058148,0.2627378200355452,0.0,H10C8SO2
CC1=CCC=C(C(=N)O)O1,4.60365235036952,0.4753540086454451,0.0,H9C7NO2
COC1=CCC(=CO1)C(=N)O,4.348800314353502,0.5135888166219957,0.0,H9C7NO3
C[C@@H]1C=COC=C1C(=N)O,4.834632122328548,0.4421523025754141,0.0,H9C7NO2
CC1=COC=C[C@H]1[C]([NH])O,4.774413767948863,-0.051305882129236,0.0,H9C7NO2
C=CC1=C(CC=CO1)N,3.40040854055369,-0.1100326390573172,0.0,H9C7NO
C=C[C@@H]1C=CSC(=C1)OC,4.073867161414091,-0.1130538945166335,0.0,H10C8SO
CC[C@@H]1C=CSC=C1C(=O)O,4.6608153860775925,0.858676198845933,0.0,H10C8SO2
C=CC1=CSC=C[C@H]1C,4.005442963889072,0.197779713345517,0.0,H10C8S
C=CC1=CCC=C(OC)S1,3.932372866112564,0.3959629785109428,0.0,H10C8SO
CCC1=CSC(=CC1)C(=O)O,4.403495527889026,0.8359531041765877,0.0,H10C8SO2
c1ccc(cc1)C1=COC(=CC1)C(Cl)(Cl)Cl,4.344314177580236,2.4642907030662173,0.0,H9C12Cl3O
CC[C@@H]1C=CSC(=C1)C(=O)O,4.54402426805027,0.8844567863721751,0.0,H10C8SO2
CCC1=CSC=C(C1)[C]([NH])O,4.2762943657049615,0.573643249628367,0.0,H11C8SNO
CCC1=CSC=C[C@H]1C(=O)O,4.435302577059337,0.2815400019149821,0.0,H10C8SO2
C=CC1=C[C@@H](C=CS1)OC,4.418147726105962,0.5507006570493105,0.0,H10C8SO
C=CC1=CSC(=CC1)C,3.8793898118943617,0.3467239467623586,0.0,H10C8S
C=CC1=C(CC=CS1)OC,3.5979419380106266,0.262198332582193,0.0,H10C8SO
c1ccc(cc1)C1=CSC(=CC1)C(Cl)(Cl)Cl,4.231277460452111,2.3692149991853517,0.0,H9C12SCl3
C=CC1=C(C)CC=CS1,3.9756166830462463,0.117306614372501,0.0,H10C8S
C=CC1=CCC(=CO1)C,4.130272994104962,0.1889751408412849,0.0,H10C8O
C=CC1=CCC(=CS1)C,3.9516397993771535,0.33113225374982,0.0,H10C8S
C=CC1=CCC(=CS1)OC,3.689251516175864,0.3795897827163572,0.0,H10C8SO
C=C[C@@H]1C=CSC(=C1)C,4.163146743130346,-0.1553974092115821,0.0,H10C8S
C=C[C@@H]1C=CSC=C1OC,3.818414774237317,-0.1472659456616383,0.0,H10C8SO
CN(C)C1=CCC=C(C(=O)O)S1,3.7456225509500656,0.7517423012155633,0.0,H11C8SNO2
c1ccc(cc1)C1=CCC=C(C(Cl)(Cl)Cl)S1,4.37919857303641,2.6335201284615324,0.0,H9C12SCl3
CCC1=C[C@@H](C=CS1)C(=N)O,4.513092990056611,-0.0339598739214124,0.0,H11C8SNO
CN(C)[C@@H]1C=CSC(=C1)C(=O)O,4.260138460982125,0.9586038318062492,0.0,H11C8SNO2
C=CC1=C[C@@H](C=CS1)NC,4.264794388620066,0.4231615485310613,0.0,H11C8SN
CCC1=CCC(=CS1)[C]([NH])O,4.311971483196976,0.5738534303578491,0.0,H11C8SNO
C=CC1=CSC(=CC1)OC,3.925165639937041,0.4478619447996608,0.0,H10C8SO
C=C[C@@H]1C=CSC=C1NC,3.31365117928508,-0.3833084255187713,0.0,H11C8SN
CN(C)[C]1CC=CS[C]1C(=O)O,3.7765395756265208,0.447451292363985,0.0,H11C8SNO2
CCC1=CCC=C([C]([NH])O)S1,4.356984067298617,0.5492765873728787,0.0,H11C8SNO
CN(C)C1=C[C@@H](C=CS1)C(=O)O,3.9819514904898825,0.1222501255229873,0.0,H11C8SNO2
CCC1=CSC=C[C@H]1C(=N)O,4.425417622814711,0.2059289023905877,0.0,H11C8SNO
CN(C)[C]1[C](CC=CS1)C(=O)O,4.072709284375014,0.571751840756042,0.0,H11C8SNO2
CCC1=CSC(=CC1)C(=N)O,4.30371747862373,0.5516361191199395,0.0,H11C8SNO
CN(C)[C@@H]1C=CSC(=C1)C(=N)O,4.206917149325454,0.6598306330830384,0.0,H12C8SN2O
C=CC1=C(NC)SC=CC1,3.340618414445635,0.2098951520689298,0.0,H11C8SN
c1ccc(cc1)C1=CSC=C(C1)C#N,4.329060711182683,0.8595277246800834,0.0,H9C12SN
C=CC1=CSC=C(C)C1,3.899698584694852,0.191417645540787,0.0,H10C8S
CCC1=C(CC=CS1)C(=N)O,4.275565993151394,0.5492552073897969,0.0,H11C8SNO
C=CC1=CSC(=CC1)NC,3.652916141703463,0.4241762691977784,0.0,H11C8SN
CCC1=CSC=C(C)C1,3.8531122002801568,-0.623208309518668,0.0,H12C8S
CCC1=CCC(=CS1)NC,3.1248400317359484,-0.6504493864362302,0.0,H13C8SN
CN(C)C1=CCC=C(OC)S1,3.6554430425072497,-0.8535035491826419,0.0,H13C8SNO
CCC1=CSC(=CC1)OC,3.9376870752290416,-0.693049969801359,0.0,H12C8SO
CCC1=CSC=C[C@H]1NC,4.109282184295443,-0.5546840257979055,0.0,H13C8SN
CCC1=CSC=C[C@H]1C,4.009153448323195,-0.600757551818242,0.0,H12C8S
CN(C)[C@@H]1C=CSC(=C1)OC,4.0307195884211975,-0.006190166887245,0.0,H13C8SNO
CC[C@@H]1C=CSC(=C1)C,4.045601671130134,-0.5514542903241817,0.0,H12C8S
C=C[C@@H]1C=CSC(=C1)NC,3.590024995404383,-0.1933256020442058,0.0,H11C8SN
CC[C@@H]1C=CSC(=C1)OC,3.964085695866379,-0.4237088052235775,0.0,H12C8SO
c1ccc(cc1)C1=CSC=C[C@H]1C#N,4.430537627007288,0.616768180026702,0.0,H9C12SN
CCC1=CSC=C(C1)OC,3.6186332484445294,-0.6430844893387984,0.0,H12C8SO
CN(C)[C@@H]1C=CSC=C1OC,3.9680397657299182,-0.6596358135742775,0.0,H13C8SNO
CCC1=C(CC=CS1)OC,3.561086023366079,-0.6710091271110286,0.0,H12C8SO
c1ccc(cc1)C1=CCC=C(O)S1,4.042476405594789,0.2868816047281144,0.0,H10C11SO
CCC1=CSC=C[C@H]1OC,4.33234405036419,-0.4743510110296483,0.0,H12C8SO
CN(C)C1=CCC=C([C]([NH])O)S1,3.671943971259316,0.6880229329122813,0.0,H12C8SN2O
CCC1=CCC=C(OC)S1,3.8919946555230127,-0.613515399616881,0.0,H12C8SO
CCC1=C(C)CC=CS1,3.8591681645026257,-0.5995333279846817,0.0,H12C8S
CN(C)C1=CSC=C[C@H]1OC,3.454430705003324,-0.3174541663232957,0.0,H13C8SNO
c1ccc(cc1)[C@@H]1C=CSC=C1C#N,4.694694133145822,0.7854182037459396,0.0,H9C12SN
CCC1=CCC(=CS1)C,3.892198234768876,-0.6369879801517526,0.0,H12C8S
CC1=C[C@@H](C=CS1)N(C)C,3.978011175980646,-0.5294577151129487,0.0,H13C8SN
CN(C)C1=CCC(=CS1)OC,3.5102885766187684,-0.7199100873462156,0.0,H13C8SNO
CN(C)C1=CSC(=CC1)OC,3.2250341675513483,-0.7463623633979295,0.0,H13C8SNO
CCC1=C[C@@H](C=CS1)NC,4.2090572539178535,-0.512920546242094,0.0,H13C8SN
C=CC1=CCC(=CS1)NC,3.1939961338517606,0.3108074942698295,0.0,H11C8SN
CN(C)C1=CCC(=CS1)[C]([NH])O,3.71177465887522,0.5870308559184196,0.0,H12C8SN2O
CC[C@@H]1C=CSC=C1C,4.013610490682913,-0.6229038821569701,0.0,H12C8S
CN(C)C1=C(CC=CS1)C(=O)N,3.6339287019996847,0.5554273560643197,0.0,H12C8SN2O
CCC1=C(OC)SC=CC1,3.7738721525071015,-0.6095586031718994,0.0,H12C8SO
CN(C)C1=CSC=C(C1)OC,3.147414979468158,-0.8954015210023498,0.0,H13C8SNO
CCC1=CSC=C(C1)NC,3.1400746705745406,-0.8074776458000996,0.0,H13C8SN
CN(C)[C@@H]1C=CSC=C1C(=N)O,4.654701156834198,0.5464839674074029,0.0,H12C8SN2O
CNC1=CSC=C(C1)N(C)C,2.8881500270632388,-0.9399188851224608,0.0,H14C8SN2
c1ccc(cc1)C1=C(CC=CS1)F,4.1549751808866855,0.3381990555804806,0.0,H9C11SF
Cc1cccc(c1)N(=O)=O,6.012103445945831,1.8942324814412133,0.0,H7C7NO2
C1=C(CC(=C1)N(=O)=O)C(=O)O,6.043007464928087,2.4412398880245747,0.0,H5C6NO4
c1ccc(cc1)C1=CCC=C(C#N)S1,4.44347065352631,0.7214339815996937,0.0,H9C12SN
C#C[C@@H]1C=CSC=C1C#N,4.884409308173053,0.9042456421462703,0.0,H5C8SN
c1ccc(cc1)C1=C(F)SC=CC1,4.1800269768078575,0.336805231354083,0.0,H9C11SF
C1=C[C@H](C(=C1)O)N,4.116627793167572,-0.1321173536074638,0.0,H7C5NO
CCC1=CCC=C1,4.533120406402849,-0.5162914347587502,0.0,H10C7
CC[C@@H]1C=CC=C1,4.660771952506911,-0.2911412103025212,0.0,H10C7
C[C]1CC=CS[C]1N(C)C,3.46167592099082,-0.7437986727949464,0.0,H13C8SN
C#CC1=CSC=C[C@H]1c1ccccc1,4.268364998382458,0.4912238809134579,0.0,H10C13S
C1=CSC(=C(C1)C#N)F,4.805478036143176,0.929091624756984,0.0,H4C6SNF
C1C(=CSC=C1F)C#N,4.672340928258199,0.8447302775435674,0.0,H4C6SNF
CNC1=CSC=C[C@H]1N(C)C,3.326197317071637,-0.7658466747983765,0.0,H14C8SN2
CC1=CCC=C(N(C)C)S1,3.474450209907081,-0.7809649740869644,0.0,H13C8SN
C#CC1=CSC=C[C@H]1C(Cl)(Cl)Cl,4.647365566402732,2.3256973459443544,0.0,H5C8SCl3
C#CC1=C(C#N)SC=CC1,4.56802490725895,1.3626417818682968,0.0,H5C8SN
C#CC1=C(C(Cl)(Cl)Cl)SC=CC1,4.4469178025261495,2.866501629674167,0.0,H5C8SCl3
C1=CC(=C(C1)N(=O)=O)N,5.06572250574718,1.3301601649414807,0.0,H6C5(NO)2
C1=CC(=C(C1)C(=O)O)N(=O)=O,5.973387579820701,2.7994778184725875,0.0,H5C6NO4
COC1=CCC=C1N(=O)=O,4.940235867508454,1.8540375105472775,0.0,H7C6NO3
CC1=CCC=C1F,4.711559529188525,-0.3283346293650537,0.0,H7C6F
C=C[C@@H]1C=CSC(=C1)C(Cl)(Cl)Cl,4.542974080062413,2.6500228368327954,0.0,H7C8SCl3
C1C(=CSC=C1N(=O)=O)C(Cl)(Cl)Cl,5.168344218190759,2.716992640309036,0.0,H4C6SNCl3O2
C#CC1=CSC=C(C1)c1ccccc1,4.044678742620453,0.5610865728718637,0.0,H10C13S
C1C=C(F)SC=C1C#N,4.797869118237577,0.8877751221130894,0.0,H4C6SNF
C1C=C(C#N)C(=C1)N(=O)=O,6.063478802150348,2.0974319781886157,0.0,H2C3NO
C1C=C(C(=C1)N(=O)=O)N,4.177714206969176,1.9936044677357128,0.0,H6C5(NO)2
C1=C(CC(=C1)N)C(=O)O,3.942411909996372,0.4768242129881401,0.0,H7C6NO2
CCC1=C(CC=CS1)NC,3.004009378329647,-0.5897519729245686,0.0,H13C8SN
CC1=CSC=C(C1)N(C)C,3.150780820842192,-0.7988656537003407,0.0,H13C8SN
C#CC1=CSC=C[C@H]1C#N,4.625402194518392,0.7629974465977285,0.0,H5C8SN
C1C=C(C(Cl)(Cl)Cl)SC(=C1)N(=O)=O,4.994541854984709,2.149623158723989,0.0,H4C6SNCl3O2
CN(C)C1=C(OC)SC=CC1,3.201761593410629,-0.6670203845009381,0.0,H13C8SNO
CCC1=C(NC)SC=CC1,3.27389526855186,-0.5291328601691929,0.0,H13C8SN
C#C[C@@H]1C=CSC(=C1)C(=O)O,4.846667399034777,1.036993395938771,0.0,H6C8SO2
C#CC1=CCC=C(C(Cl)(Cl)Cl)S1,4.587684816442197,2.397461860565818,0.0,H5C8SCl3
C#CC1=C(C(=O)O)SC=CC1,4.440901746509189,1.546229094752198,0.0,H6C8SO2
C#C[C@@H]1C=CSC(=C1)C(=N)O,4.6935731819554345,0.7700870053100517,0.0,H7C8SNO
C1=C[C@H](C(=C1)N(=O)=O)F,5.963282381638782,2.3538238169581747,0.0,H4C5NO2F
C1=C(CC(=C1)N(=O)=O)C(=O)N,5.734816109770327,2.28987482803459,0.0,H6C6N2O3
CN[C]1[C](CC=CS1)N(C)C,2.870810212172364,-0.7008382379339309,0.0,H14C8SN2
C#CC1=CSC(=CC1)C(Cl)(Cl)Cl,4.4544878299289845,2.3727172430677457,0.0,H5C8SCl3
CC1=CCC=C1N,3.706900226856851,-0.826082993512864,0.0,H9C6N
C[C@@H]1C=CSC(=C1)N(C)C,3.538810615829425,-0.7037929561178315,0.0,H13C8SN
CN[C@@H]1C=CSC=C1N(C)C,3.301286130533845,-0.4848007647509802,0.0,H14C8SN2
CNC1=CCC=C(N(C)C)S1,3.5331233332013654,-0.923827188375435,0.0,H14C8SN2
C#CC1=C[C@@H](C=CS1)C(=O)O,4.628665995931078,0.9186270898113436,0.0,H6C8SO2
C1C=C(N(=O)=O)SC=C1C(Cl)(Cl)Cl,5.038493625064438,2.413046662929992,0.0,H4C6SNCl3O2
C1=C(CC(=C1)N(=O)=O)C(Cl)(Cl)Cl,5.864930030432879,3.169577338603267,0.0,H4C6NCl3O2
c1ccc(cc1)C1=C(C#N)SC=CC1,4.438866805752332,1.1264836318638118,0.0,H9C12SN
C#CC1=C(CC=CS1)C#N,4.652355097443069,1.3446681349319989,0.0,H5C8SN
C#CC1=CCC(=CS1)C(=O)O,4.682805523074057,0.9460236063219782,0.0,H6C8SO2
CC1=CCC(=CS1)N(C)C,3.180837927689572,-0.7716290258416847,0.0,H13C8SN
C[C@@H]1C=CSC=C1N(C)C,3.205319500897167,-0.6815659113693981,0.0,H13C8SN
CC[C@@H]1C=CSC(=C1)NC,3.391383798019524,-0.5340517423013806,0.0,H13C8SN
C1=CC(=C(C1)N(=O)=O)N(=O)=O,6.140542002447182,2.8312000048914343,0.0,H4C5(NO2)2
C1=C[C@H](C(=C1)N(=O)=O)O,5.731042113796866,2.150641711004573,0.0,H5C5NO3
CC1=CC=C(C1)N(=O)=O,5.369228474013289,1.86461714195284,0.0,H7C6NO2
CNC1=CCC(=CS1)N(C)C,3.1751025489407767,-0.6968461646523791,0.0,H14C8SN2
C#CC1=CSC(=CC1)C(=O)O,4.54396160839824,0.9070317449892172,0.0,H6C8SO2
C1=CSC(=C[C@@H]1C#N)N(=O)=O,5.115304928921978,2.392391217819386,0.0,H4C6S(NO)2
C1=CC(=C(C1)F)N(=O)=O,5.51987615209473,1.9228332145044988,0.0,H4C5NO2F
C1=CC(=C(C1)C#N)N(=O)=O,5.990398230236314,2.5238930061419524,0.0,H2C3NO
C1C=C(N)OC=C1N,3.5152011076112104,-0.7340034997945621,0.0,H8C5N2O
C1=COC=C([C@@H]1N(=O)=O)N(=O)=O,4.806148274293809,2.177465901107644,0.0,H4C5N2O5
C1=COC(=C(C1)N)O,3.480494492286744,-0.6209320255551574,0.0,H7C5NO2
C1=COC(=C(C1)O)N,3.268528116968446,-0.519324759039955,0.0,H7C5NO2
C1=COC=C([C@@H]1N)O,4.278811024150491,-0.5463552252935187,0.0,H7C5NO2
CCc1c[nH]cc1CC,4.083161869129617,-1.0212101161236204,0.0,H13C8N
CCc1cc[nH]c1N(C)C,3.093908051688777,-0.7595473939949442,0.0,H7C4N
C1=COC=C([C@@H]1O)N,3.728642524970928,-0.6898215431887365,0.0,H7C5NO2
C1C(=COC=C1O)N,3.417747280603726,-0.5027889779488759,0.0,H7C5NO2
C1=COC(=C(C1)N)N,2.922695825834672,-0.5598583058148505,0.0,H8C5N2O
c1ccc(cc1)C1=C(CC=CO1)F,4.296188091433214,0.2703128679273505,0.0,H9C11OF