smiles,IE,EA,charge,formula_pretty
COCCOC1=CS[C](C2=[S]C=CS2)S1,3.21391080145404,0.736845508030092,0.0,H10C9(S2O)2
COC1=C(C#N)S[C](C2=[S]C=CS2)S1,3.42580710201728,1.2907793987847982,0.0,H5C8S4NO
CC1=C(OC)S[C](C2=[S]C=CS2)S1,3.175653100539057,0.3236438659529086,0.0,H8C8S4O
CC(C)(C)C1=C(N(=O)=O)S[C](C2=[S]C=CS2)S1,3.494383582621231,2.140746642036538,0.0,H11C10S4NO2
CC(=O)C1=C(C#N)S[C](C2=[S]C=CS2)S1,3.5623756769724424,2.055933542310959,0.0,H5C9S4NO
C1(c2c(N(c3c1cccc3)C)cccc2)(c1ccccc1)c1ccccc1,3.830772780680127,-0.2340315166096842,0.0,H21C26N
c1(c(cc(cc1N(=O)=O)N(=O)=O)N(=O)=O)Nc1ccc(cc1)c1ccccc1,4.580135252015316,2.582661872425524,0.0,H6C9N2O3
COCCOCCOCCOC1=C(C(F)(F)F)S[C](C2=[S]C=CS2)S1,3.476436096703401,0.7127210461418145,0.0,H17C14S4O4F3
COCCOCCOC1=CS[C](C2=[S]C=CS2)S1,3.2446846915278003,0.7276006471744041,0.0,H14C11S4O3
CC(=O)C1=CSC(=[S]1)[C]1SC=C(C#N)S1,3.634982642442629,1.268449032411445,0.0,H5C9S4NO
CC1=C(O)S[C](C2=[S]C=CS2)S1,3.192380300106015,0.7841426102619153,0.0,H6C7S4O
C1=C(N(=O)=O)[S]=C(C2=[S]C(=CS2)N(=O)=O)S1,3.9883352893099073,2.249477957689669,0.0,HC3S2NO2
CC1=C(OCCOC)S[C](C2=[S]C=CS2)S1,3.1983374842835475,0.6269285406830023,0.0,H6C5S2O
C(N1[Si]N(CC1)C(C)(C)C)(C)(C)C,3.9613116150118,0.1705112998693949,0.0,SiH22(C5N)2
c12c(C=CC(=O)[CH][CH]1)coc2,2.834528517594299,1.623584988206494,0.0,H6C9O2
C1=C[S]=C([C]2SC(=C(F)S2)C(Cl)(Cl)Cl)S1,3.5003995134698926,2.754608566168463,0.0,H2C7S4Cl3F
C=CC1=CS[C](C2=[S]C(=CS2)C)S1,3.20520965125761,0.5168709938821849,0.0,H8C9S4
CNC1=C(OC)S[C](C2=[S]C=CS2)S1,2.965345000558591,0.6883097599507892,0.0,H9C8S4NO
CC1=C(C(C)(C)C)S[C](C2=[S]C=CS2)S1,3.0810659683280397,0.2443130709449179,0.0,H14C11S4
c1ccc(cc1)C1=C(Cl)S[C](C2=[S]C=CS2)S1,3.3220219397422626,1.5992581171536586,0.0,H7C12S4Cl
CNC1=C(N)S[C](C2=[S]C=CS2)S1,3.017469067586353,0.2954425020157942,0.0,H8C7(S2N)2
P(c1ccccc1)(c1ccccc1)(c1ccccc1)[CH]c1ccccc1,2.80362621700042,0.3523809376798454,0.0,PH21C25
CCC1=CSC(=[S]1)[C]1SC=C(C#N)S1,3.416307531720668,1.001555765834928,0.0,H7C9S4N
CC(=O)C1=C(C(=O)O)S[C](C2=[S]C=CS2)S1,3.461906276244554,2.10680853605445,0.0,H6C9S4O3
CC1=CSC(=[S]1)C1=[S]C(=CS1)C,3.127608536976913,0.2483620160070132,0.0,H2C2S
c1(P(N(CC)CC)N(CC)CC)c(c(c(c(c1F)F)F)F)F,3.726400162720529,0.91851304146403,0.0,PH20C14N2F5
C1=C(C(=O)O)[S]=C(C2=[S]C(=CS2)C(=O)O)S1,3.5742489507043502,1.1128887591781678,0.0,HC2SO
C1=C[S]=C([C]2SC(=C(O)S2)C(F)(F)F)S1,3.4329464847774944,1.1212885650616955,0.0,H3C7S4OF3
CC(=O)C1=C(OC)S[C](C2=[S]C=CS2)S1,3.3563759581171326,1.1496096863062122,0.0,H8C9(S2O)2
CN(C)C1=C(N(C)C)S[C](C2=[S]C=CS2)S1,2.917770695968648,0.1901472711993848,0.0,H7C5S2N
CC(=O)C1=C(C(C)(C)C)S[C](C2=[S]C=CS2)S1,3.271231157059083,1.1849961073035955,0.0,H14C12S4O
C#CC1=C(C)S[C](C2=[S]C=CS2)S1,3.264424792666978,0.5968507205339848,0.0,H6C9S4
c12c3c(c(c4ccccc4)cc(n3)C)ccc1c(c1ccccc1)cc(n2)C,4.563957521027623,0.8315082552377135,0.0,H10C13N
[Si](Cc1c(cc(c(c1)C)C[Si](C)(C)C)C)(C)(C)C,4.036278082292119,-0.6460895213735056,0.0,SiH15C8
c12c3c4c(ccc3ccc1c(ccc2cc4)C(C)C)C(C)C,3.868588046263176,0.706932294987928,0.0,HC
c12c(c(c3c(c1F)c(c1c(c3F)c(c(c(c1F)F)F)F)F)F)[C@]1([C]([C]2F)[C]([C]([C](C(=[C]1)F)F)F)F)F,2.131179709971184,5.597626852054964,0.0,C11F7
C#CC1=CSC(=[S]1)C1=[S]C(=CS1)N(=O)=O,3.681468516167661,2.2984596677066294,0.0,H3C8S4NO2
C#CC1=C(C=C)S[C](C2=[S]C=CS2)S1,3.32823281838646,1.125498345748929,0.0,H3C5S2
C1=C[S]=C([C]2SC(=C(N)S2)F)S1,3.264807768407627,0.5805406061641407,0.0,H4C6S4NF
CC1=C(C(=O)O)S[C](C2=[S]C=CS2)S1,3.325568568108429,1.0164073500214728,0.0,H3C4S2O
C1=C[S]=C([C]2SC(=C(N(=O)=O)S2)C(F)(F)F)S1,3.702088010302396,2.681268569585518,0.0,H2C7S4NO2F3
CC(C)(C)C1=C(C#N)S[C](C2=[S]C=CS2)S1,3.3892805458104704,1.001833866177185,0.0,H11C11S4N
C1=C(C(=O)O)[S]=C([C]2SC=C(C(F)(F)F)S2)S1,3.617005441688525,1.1788669852845488,0.0,H3C8S4O2F3
COC1=C(N)S[C](C2=[S]C=CS2)S1,3.090382721669448,0.4147768068592996,0.0,H7C7S4NO
CC1=CSC(=[S]1)C1=[S]C=CS1,3.1599362596549327,0.2588311034283834,0.0,H6C7S4
c12c(c3c4c(c2)CCCN4CCC3)OC(=O)[CH][C]1C(F)(F)F,0.6688310214318336,4.528850509244512,0.0,H14C16NO2F3
COC1=C(OC)S[C](C2=[S]C=CS2)S1,3.2153528524228023,0.4040136215277017,0.0,H4C4S2O
C=CC1=CS[C](C2=[S]C(=CS2)C(C)(C)C)S1,3.188889836042654,0.5189051700013807,0.0,H7(C3S)2
C1=C[S]=C([C]2SC=C(F)S2)S1,3.326994207885582,1.0740933694847627,0.0,H3C6S4F
C#CC1=C(N(=O)=O)S[C](C2=[S]C=CS2)S1,3.614703179018397,2.525247678373125,0.0,H3C8S4NO2
CC1=CSC(=[S]1)[C]1SC=C(OCCOCCOCCOC)S1,3.25616097021848,0.7146900591702434,0.0,H10C7(SO)2
CNC1=C(N(C)C)S[C](C2=[S]C=CS2)S1,2.9708102110904293,0.1977407248792588,0.0,H12C9(S2N)2
[Si]1([Si](CSCCCSC1)(C)C)(C)C,4.303641980639076,-0.7162305340883903,0.0,Si2H22C9S2
P(CCCC)(CCCC)CCCC,4.082850324955507,-0.8746220348024507,0.0,P(H9C4)3
c1(c(n(c2c1cccc2)C)c1ccccc1)Cc1ccccc1,3.898688258666516,0.1470544175805117,0.0,H19C22N
CC(=O)C1=CSC(=[S]1)[C]1SC=C(Cl)S1,3.48514204970852,1.261846415969194,0.0,H5C8S4ClO
CC1=CSC(=[S]1)[C]1SC=C(C(Cl)(Cl)Cl)S1,3.3784308663685807,2.848222230191459,0.0,H5C8S4Cl3
C=CC1=CSC(=[S]1)C1=[S]C(=CS1)N(=O)=O,3.6136777615553,2.284784039811348,0.0,H5C8S4NO2
c12c(nccn1)cncn2,5.627163919432496,1.9255402616650827,0.0,H2C3N2
c12c(c([C](C#N)C#N)ccc1[C](C#N)C#N)cccc2,5.521846704542986,3.250650686762674,0.0,H3(C4N)2
B1(N(C(C)(C)C)C=CN1C(C)(C)C)C#N,4.019203798799572,-0.4022621557545789,0.0,BH20C11N3
C1=C(Cl)[S]=C(C2=[S]C(=CS2)N(=O)=O)S1,3.706961384110037,2.303759955475107,0.0,H2C6S4NClO2
C1=C[S]=C([C]2SC(=C(Cl)S2)C#N)S1,3.568975730102102,1.7688135534204776,0.0,H2C7S4NCl
CC1=C(N(C)C)[S]=C(C2=[S]C=CS2)S1,3.103594028123189,0.1994800955813844,0.0,H11C9S4N
CC(=O)C1=CSC(=[S]1)C1=[S]C(=CS1)C(=O)C,3.529902332572965,1.2207397212638171,0.0,H4C5S2O
C(N1[C@@H](C(C)(C)C)CN([Si]1)C(C)(C)C)(C)(C)C,3.864327693228552,0.1660389755939832,0.0,SiH30(C7N)2
C(=CO)(c1c(cc(cc1C)C)C)c1c(cc(cc1C)C)C,4.038765393257199,-0.1814396015419332,0.0,H24C20O
[Si]([Si](c1ccccc1)(C)C)(c1ccccc1)(C)C,4.393614375081233,-0.3906426064080732,0.0,SiH11C8
C=CC1=C(c2ccccc2)S[C](C2=[S]C=CS2)S1,3.194377814333712,0.990565825320664,0.0,H5C7S2
CC(=O)C1=C(OCCOC)S[C](C2=[S]C=CS2)S1,3.3507674143489568,1.1377757466339973,0.0,H12C11S4O3
CN(C)[C]1[C](N(=O)=O)S[C](C2=[S]C=CS2)S1,3.4882778161205352,1.786788901068212,0.0,H4C4S2NO
CC(C)(C)C1=CSC(=[S]1)C1=[S]C(=CS1)N(=O)=O,3.526120546144375,2.2582741001111573,0.0,H11C10S4NO2
C1=C[S]=C([C]2SC=C(Cl)S2)S1,3.323051387220039,0.9602917512180285,0.0,H3C6S4Cl
C1(=C(c2ccccc2)c2ccccc2)c2c1cc1c(c2)cccc1,3.8742950761967214,1.2755668691912434,0.0,H2C3
c1(c(c(c(c(c1F)F)C=C(C#N)C#N)F)F)N1CCCCCC1,4.581037159719562,2.0354222515066795,0.0,H13C16N3F4
C1=C[S]=C([C]2SC=C(C#N)S2)S1,3.460285019269213,1.0147673090265017,0.0,H3C7S4N
C(#N)C1=CS[C](C2=[S]C(=CS2)N(=O)=O)S1,3.862350334480289,2.3357840344993748,0.0,H2C7S4(NO)2
CC(=O)[C]1[C](N(C)C)S[C](C2=[S]C=CS2)S1,3.248241178576427,0.9093032560645952,0.0,H11C10S4NO
c1(c(cc(cc1N(=O)=O)N(=O)=O)N(=O)=O)Nc1c2c(c(cc(n2)C)C)ccc1,4.643483394452778,2.531085995063768,0.0,H13C17N5O6
[C](C1=[S]C(=C(S1)C)C)(c1ccc(cc1)N(C)C)C#N,3.4324066735003727,0.8030718992318726,0.0,H16C15(SN)2
CCC1=CSC(=[S]1)[C]1SC=C(OCCOC)S1,3.17656754454365,0.72048612201761,0.0,H14C11(S2O)2
C1=C[S]=C([C]2SC(=C(O)S2)C#N)S1,3.4813182815501933,1.2898810884158594,0.0,H3C7S4NO
C=CC1=CS[C](C2=[S]C(=CS2)C(=O)O)S1,3.419168778798485,1.1291630932988483,0.0,H6C9(S2O)2
C#CC1=CS[C](C2=[S]C=CS2)S1,3.296554089932761,0.6974923965331983,0.0,HC2S
CC(=O)c1ccc2c(c1)[nH]sn2OCCOC,3.9799106258156822,3.988978008584672,0.0,H14C11SN2O3
CNc1cscc1Cl,3.915395838828408,1.2547593634313672,0.0,H6C5SNCl
CC(=O)n1c2cc(ccc2[nH]s1)C(F)(F)F,3.7781232019711752,2.0819525396524114,0.0,H7C9SN2OF3
CCC1=C(C(F)(F)F)S[C](C2=[S]C=CS2)S1,3.3496241008484504,0.6577852730857559,0.0,H7C9S4F3
COCCOCCOC1=C(N(=O)=O)S[C](C2=[S]C=CS2)S1,3.633587501180591,2.008518388940138,0.0,H13C11S4NO5
C=Cc1c(ccc2c1[nH]s[nH]2)C(=O)C,3.453368160325772,1.102070590529911,0.0,H10C10SN2O
CCC1=C(OCCOCCOCCOC)S[C](C2=[S]C=CS2)S1,3.2067643573478564,0.619092954666121,0.0,H22C15(SO)4
c1c2c3c4c5c1c(=O)n(c(=O)c5cc1c4c4c5c3c(cc3c5c(cc4c(c1)c1c(c(cc(c1F)F)F)F)c(=O)n(c3=O)C)cc2c1c(c(cc(c1F)F)F)F)C,4.870222381077474,2.294368196694996,0.0,H7C21N(OF2)2
CNC1=C(NC)S[C](C2=[S]C=CS2)S1,2.9400634670906585,0.2374939797751722,0.0,H5C4S2N
COCCOC1=C(C(Cl)(Cl)Cl)S[C](C2=[S]C=CS2)S1,3.332254690854461,2.7041877168318025,0.0,H9C10S4Cl3O2
CC1=CSC(=[S]1)C1=[S]C(=CS1)N(=O)=O,3.5426613123723656,2.2640990369560314,0.0,H5C7S4NO2
C#CC1=C(C(=O)C)S[C](C2=[S]C=CS2)S1,3.4185224730696064,1.6691785435119528,0.0,H6C10S4O
C#CC1=C(OCCOCCOC)S[C](C2=[S]C=CS2)S1,3.28338011749438,1.0096079027513043,0.0,H14C13S4O3
CN(C)c1cc(OC)sc1,3.417683053570363,-0.7421386776972212,0.0,H11C7SNO
c1ccc(cc1)c1cc(C#N)sc1,4.8115970219347215,0.8958701523421042,0.0,H7C11SN
CNc1ccc(c2ccccc2)s1,3.3332624780574407,0.3107282383840357,0.0,H11C11SN
COCCOc1cc(C(F)(F)F)sc1,4.717784469930484,0.5437364856712521,0.0,H9C8SO2F3
CNc1cscc1C(F)(F)F,4.055415519303642,0.1857653485836636,0.0,H6C6SNF3
CNc1ccc(O)s1,3.197135377876839,-0.1982915217689878,0.0,H7C5SNO
CC(=O)n1c2ccccc2n(C(=O)O)s1,4.062664827886328,2.3122340212408745,0.0,H8C9SN2O3
CC(C)(C)c1ccsc1C(F)(F)F,5.326550044742907,0.4305654585929006,0.0,H11C9SF3
C#Cc1ccsc1OCCOC,4.332523422368103,0.3630429320342956,0.0,H10C9SO2
CCn1c2cc(ccc2[nH]s1)C#N,3.201046706815396,1.637698708511016,0.0,H9C9SN3
C=Cc1cc(N(=O)=O)sc1,5.048303606495756,2.192550501820369,0.0,H5C6SNO2
Cn1ccc(=c2ccn(C)c(c2C(=O)O)N(=O)=O)cc1,2.3270706799827168,1.9825094815729245,0.0,H13C13N3O4
COCCOCCOc1ccsc1O,3.934948788226029,-0.7339573982666479,0.0,H14C9SO4
c1cc(c2c(c1)[nH]sn2N)C(=O)O,3.707378665252327,0.9599592498867424,0.0,H7C7SN3O2
C=Cc1c(ccs1)O,4.132179562436795,0.3884556107710524,0.0,H6C6SO
c1c(csc1C(=O)O)N(=O)=O,6.130197654057701,2.096529631727753,0.0,H3C5SNO4
c1c(C#N)csc1N(=O)=O,6.222064545859757,2.4179751922107244,0.0,H2C5S(NO)2
c1c(csc1C#N)C(F)(F)F,5.886833115984336,1.1352603426363204,0.0,H2C6SNF3
CN(C)c1cc(c2ccccc2)sc1,3.5477938256241037,0.4171638384337712,0.0,H13C12SN
CN(C)c1cc(N(=O)=O)sc1,4.04388612943294,2.1242934529378545,0.0,H8C6S(NO)2
C=Cc1cc(cs1)NC,3.644707876739267,0.4169419432051655,0.0,H9C7SN
Cc1ccsc1C(C)(C)C,4.4951584594797165,-0.4880529577843844,0.0,H14C9S
C=Cc1ccc(N(=O)=O)s1,5.116099210170068,2.275673575969995,0.0,H5C6SNO2
CC(=O)c1c(ccs1)C(F)(F)F,5.66100534608413,1.5162077572727868,0.0,H5C7SOF3
CC(C)(C)c1ccsc1C(=O)O,5.249995224499434,0.9305292348231888,0.0,H12C9SO2
C=Cc1cc(C(F)(F)F)sc1,4.848435499517654,0.7067740743965261,0.0,H5C7SF3
c1csc(c1N)O,3.5224096780308174,-0.1890740110706246,0.0,H5C4SNO
C=Cc1cscc1O,4.560541654247208,0.3270159469007923,0.0,H6C6SO
Cn1ccc(=c2cc(Cl)n(C)cc2OC)cc1,2.021121488314384,1.243952416754473,0.0,H15C13N2ClO
CC(=O)c1cc(C(F)(F)F)sc1,5.870156747283181,1.052261066675419,0.0,H5C7SOF3
CN(C)c1cc(OCCOC)sc1,3.451642727295257,-0.7248399084550328,0.0,H15C9SNO2
Cn1c2ccc(cc2[nH]s1)C#N,3.4227326809574152,2.152262943234382,0.0,H7C8SN3
CCc1cc(cs1)C(=O)C,5.001688941288739,0.7652245650329861,0.0,H10C8SO
c1c(Cl)ncc(n1)N(=O)=O,6.586822991213557,2.5442759324228974,0.0,H2C4N3ClO2
CCC1=C(OCCOCCOC)S[C](C2=[S]C=CS2)S1,3.1895507760651527,0.6186386116329232,0.0,H18C13S4O3
C1=C[S]=C([C]2SC(=C(Cl)S2)Cl)S1,3.4381922871922144,1.6415531656617532,0.0,HC3S2Cl
CC(=O)n1c2ccccc2n(C(C)(C)C)s1,3.343729176312627,1.7903984203854637,0.0,H16C12SN2O
c1ccc2c3c1c(=O)n1c(c3ccc2)nc2c1cc(c(c2)C)C,4.367114359376137,1.706958755393862,0.0,H14C20N2O
c1cc2c3c4c1c(=O)n1c(c4ccc3c3c4c(cccc24)ccc3)nc2c1cc(c(c2)C)C,3.944017226801952,2.0760638193110936,0.0,H18C30N2O
c1c2c3c4c5c1c(=O)n(c(=O)c5cc1c4c4c5c3c(cc3c5c(cc4c4c1c1c(cc(cc1)C(F)(F)F)c1c4ccc(c1)C(F)(F)F)c(=O)n(c3=O)C)c1c2c2ccc(cc2c2c1ccc(c2)C(F)(F)F)C(F)(F)F)C,4.532561072608223,2.3728469842113555,0.0,H11C29N(OF3)2
C#Cc1c(=c2ccn(C)cc2)ccn(C)c1C#N,2.2354270766387345,1.0008422806291493,0.0,H13(C5N)3
C#Cc1cnc(C#C)cn1,5.50256321859124,1.474681843979488,0.0,H2C4N
c1c(F)ncc(=O)[nH]1,5.107859303814257,1.3884761608638656,0.0,H3C4N2OF
CC(=O)C1=C(OCCOCCOCCOC)S[C](C2=[S]C=CS2)S1,3.378644301579334,1.054414700769121,0.0,H20C15S4O5
CN(C)[C]1[C](C(=O)O)S[C](C2=[S]C=CS2)S1,3.260878224167391,0.8226807054394158,0.0,H9C9S4NO2
CC(=O)C1=CSC(=[S]1)[C]1SC=C(N(C)C)S1,3.140608723909827,1.221444964148395,0.0,H11C10S4NO
CC(C)(C)C1=C(OC)S[C](C2=[S]C=CS2)S1,3.1039554551622133,0.5024298444346642,0.0,H14C11S4O
COCCOn1c2ccc(cc2[nH]s1)C(F)(F)F,4.030490253602329,3.9089447761885823,0.0,H11C10SN2O2F3
COc1cc(C(F)(F)F)sc1,4.733386201217945,0.5459875474094589,0.0,H5C6SOF3
CNc1cc(cs1)OC,3.378610665591259,-0.4073355767781321,0.0,H9C6SNO
CNc1cscc1N(=O)=O,4.206884392262145,1.9434817311426744,0.0,H6C5S(NO)2
COc1ccsc1C(Cl)(Cl)Cl,4.757626825784973,3.034803832045873,0.0,H5C6SCl3O
c1c(c(cs1)N)C(F)(F)F,4.216500859941879,0.1936881280322269,0.0,H4C5SNF3
CC(=O)c1cccc2c1[nH]s[nH]2,3.289758074026031,0.9887210377142766,0.0,H8C8SN2O
CNc1cscc1OC,3.67267236286134,-0.8113044697915028,0.0,H9C6SNO
CC(C)(C)c1cc(NC)sc1,3.463164359197981,-0.6994481416681082,0.0,H15C9SN
C=Cc1cscc1F,4.756747881763294,0.4660867609760317,0.0,H5C6SF
CNc1c(ccs1)OCCOC,3.28209062443566,-0.5523286437877686,0.0,H13C8SNO2
CC(C)(C)c1cc(F)sc1,4.775466184544348,-0.640348352039291,0.0,H11C8SF
c1csc(c1C#N)N(=O)=O,6.270352322049439,2.6404150359790948,0.0,H2C5S(NO)2
CCc1ccc(C(C)(C)C)s1,4.398977801423461,-0.4780857979552819,0.0,H16C10S
COCCOc1c(ccs1)N,3.5444613753403247,-0.5538399150667828,0.0,H11C7SNO2
CCc1ccc(F)s1,4.632744340180215,0.1686297143074626,0.0,H7C6SF
c1c2c3c4c5c1c(=O)n(c(=O)c5cc1c4c4c5c3c(cc3c5c(cc4c4c1c1c(cc(c(c1)C)C)c1c4cc(c(c1)C)C)c(=O)n(c3=O)C)c1c2c2cc(c(cc2c2c1cc(c(c2)C)C)C)C)C,4.044195574571495,2.167762762468192,0.0,H21C31NO2
C=Cn1c2ccccc2n(CC)s1,3.0548273098116625,1.6030438900575974,0.0,H12C10SN2
c1c2c3c4c5c1c(=O)n(c(=O)c5cc1c4c4c5c3c(cc3c5c(cc4c(c1c1c(c(c(c(c1F)F)F)F)F)c1c(c(c(c(c1F)F)F)F)F)c(=O)n(c3=O)C)c(c2c1c(c(c(c(c1F)F)F)F)F)c1c(c(c(c(c1F)F)F)F)F)C,5.15420009730733,2.435294560485636,0.0,H5C27N(OF5)2
CC(=O)c1ccc2c(c1)[nH]sn2O,3.9995400174317184,4.16367226842849,0.0,H8C8S(NO)2
c1csc(c1C(=O)O)N(=O)=O,5.924373981973622,2.4508566393429647,0.0,H3C5SNO4
C#Cc1cc(N)sc1,3.8652353534249415,0.2505201699146711,0.0,H5C6SN
c1c(csc1C(F)(F)F)F,5.554650237312307,0.6986833952665621,0.0,H2C5SF4
c1c(c(cs1)F)C(=O)O,5.423241520345618,0.8590713135796251,0.0,H3C5SO2F
CNc1c(ccs1)Cl,3.6832822610209406,1.4035099524749968,0.0,H6C5SNCl
Cc1ccsc1O,4.170458275986311,-0.4004224947770125,0.0,H6C5SO
CCC1=C(OCCOC)S[C](C2=[S]C=CS2)S1,3.1836367464071373,0.6179720034939238,0.0,H14C11(S2O)2
C1=C[S]=C([C]2SC(=C(F)S2)C(=O)O)S1,3.502287640630675,1.3901568801535178,0.0,H3C7S4O2F
CC(=O)[C]1C(=c2ccn(C)cc2)C=CN(C)[C]1OCCOCCOC,2.103521934235323,0.3089994692360052,0.0,H26C19(NO2)2
CC(C)(C)C1=C(F)S[C](C2=[S]C=CS2)S1,3.2459930992132286,0.8475870619600756,0.0,H11C10S4F
C1=C[S]=C([C]2SC(=C(O)S2)Cl)S1,3.360507908795262,1.0410087975411444,0.0,H3C6S4ClO
C=C[C]1C=Cc2c(=C1)[nH]sn2.[Cl],4.354650125134503,3.800065395227284,0.0,H7C8SN2Cl
C#CC1=C(OCCOCCOCCOC)S[C](C2=[S]C=CS2)S1,3.271409075977863,0.8661087788292208,0.0,H18C15(SO)4
c12c3c(c4c(c1cccc2)cccc4)cccc3,4.621149316453375,0.3137780521952664,0.0,H2C3
C#Cn1c2cccc(c2[nH]s1)C(Cl)(Cl)Cl,3.5447442458404117,2.794580513540132,0.0,H5C9SN2Cl3
c1c2c3c4c5c1c(=O)n(c(=O)c5cc1c4c4c5c3c(cc3c5c(cc4c(c1c1cc(ccc1C(F)(F)F)C(F)(F)F)c1cc(ccc1C(F)(F)F)C(F)(F)F)c(=O)n(c3=O)C)c(c2c1c(ccc(c1)C(F)(F)F)C(F)(F)F)c1cc(ccc1C(F)(F)F)C(F)(F)F)C,4.905565631220815,2.330196857097326,0.0,H11C31N(OF6)2
COCCOCCOCCOc1cc(Cl)sc1,4.361542336011189,1.2497411815216766,0.0,H17C11SClO4
COc1ccc(c2ccccc2)s1,3.83886613196737,0.4272722307920049,0.0,H10C11SO
C#Cc1ccc(C(Cl)(Cl)Cl)s1,5.041174283783766,2.993947865748487,0.0,H3C7SCl3
Cc1cn(C)ccc1=c1ccn(C)cc1,1.782793883515842,-0.3098619126743869,0.0,H16C13N2
C=Cc1cc(cs1)OCCOC,4.084009480922395,0.5347393953539723,0.0,H12C9SO2
COc1cc(Cl)sc1,4.390648402267834,1.274556771740754,0.0,H5C5SClO
COn1c2ccc(cc2[nH]s1)C#N,4.055276724918803,4.012879840539972,0.0,H7C8SN3O
CC(=O)c1ccc(N)s1,4.077788340875122,0.8188838112524537,0.0,H7C6SNO
CCc1ccsc1C#N,5.340267937373573,0.7447739855466353,0.0,H7C7SN
c1c(F)[nH]c(=O)cn1,5.229820873215067,1.1943478925801174,0.0,H3C4N2OF
Cc1cc(F)sc1,4.764646078443183,-0.6200814221869222,0.0,H5C5SF
CC(C)(C)n1c2c(cccc2N(=O)=O)[nH]s1,3.7113823822815903,1.9671892847050916,0.0,H13C10SN3O2
c1c2c3c4c5c1c(=O)n(c(=O)c5cc1c4c4c5c3c(cc3c5c(cc4cc1c1c(c(cc(c1C)C)C)C)c(=O)n(c3=O)C)c(c2)c1c(c(cc(c1C)C)C)C)C,4.612460133824788,2.159272573940689,0.0,H19C25NO2
c1cc2c3c4c1c(=O)n(c(=O)c4cc(c3c1c3c2c(cc2c3c(cc1)c(=O)n(c2=O)C)Oc1ccccc1)Oc1ccccc1)C,4.217001641920069,2.427237593533937,0.0,H11C19NO3
c1cc(c2c(c1)[nH]s[n]2)C(F)(F)F.[Cl],4.397039809382113,4.21751887590799,0.0,H4C7SN2ClF3
C=Cn1c2cccc(c2[nH]s1)OC,3.3262068328927854,2.2541808140900685,0.0,H10C9SN2O
c1ccc2c(c1)n(N)sn2N,3.529110361572384,1.881306200704421,0.0,H8C6SN4
C=Cn1c2ccccc2[nH]s1,3.3657583398686257,2.6936217922608194,0.0,H8C8SN2
C#Cc1cc(C#N)sc1,5.286633646713744,1.0300251156455489,0.0,H3C7SN
COCCOCCOc1cscc1F,4.644839479211077,-0.0911793678082175,0.0,H13C9SO3F
COc1cc(cs1)c1ccccc1,4.10864040925444,0.206456174653431,0.0,H10C11SO
C#Cc1c(ccs1)C(=O)O,5.061019622234744,1.2729869388400403,0.0,H4C7SO2
CN(C)c1cc(F)sc1,3.6515853363176576,-0.6523101552906154,0.0,H8C6SNF
CCc1cscc1C(F)(F)F,5.200347352596145,0.1579010438959813,0.0,H7C7SF3
C#Cc1cscc1C(Cl)(Cl)Cl,5.192559887190873,2.7140545918315184,0.0,H3C7SCl3
COCCOCCOc1cc(O)sc1,3.9278692324201994,-0.3956779940766863,0.0,H14C9SO4
CNC1=C(F)S[C](C2=[S]C=CS2)S1,3.183124130200304,0.9708097919225112,0.0,H6C7S4NF
c1c(c(cs1)N)F,4.09662464310677,-0.1989847100034238,0.0,H4C4SNF
C1=C[S]=C([C]2SC(=C(N)S2)C(=O)O)S1,3.3077683148309007,0.8591722052238766,0.0,H5C7S4NO2
CC(=O)c1ccc2c(c1c1ccccc1)[nH]s[nH]2,3.4815118361271744,0.9518070621503284,0.0,H12C14SN2O
c1ccc(cc1)c1cccc2c1[nH]sn2c1ccccc1,3.1985745580364893,2.2067199864119176,0.0,H14C18SN2
COCCOC1=C(O)S[C](C2=[S]C=CS2)S1,3.2055286176560918,0.4326364680251573,0.0,H10C9S4O3
c1cc(C#N)c2c(c1)n(C#N)s[nH]2,4.196168905765807,3.2693246594841185,0.0,H4C8SN4
CC(=O)c1ccc2c(c1Cl)[nH]s[nH]2,3.4980419191575494,2.702499285836529,0.0,H7C8SN2ClO
COCCOc1cscc1OC,4.306097870621306,-0.3168596901072305,0.0,H12C8SO3
C=Cc1cc(C(=O)C)c2c(c1)[nH]s[nH]2,3.291998994068854,1.066217913352011,0.0,H10C10SN2O
C=Cc1cscc1NC,3.766104687476036,0.2843387390035787,0.0,H9C7SN
CCc1cscc1Cl,4.995200449398544,-0.1181497948658942,0.0,H7C6SCl
CC(=O)c1c(ccs1)N(C)C,3.9771247188924463,0.8559775751578855,0.0,H11C8SNO
c1csc(c1O)Cl,4.538308949531347,1.4666882115321642,0.0,H3C4SClO
C=Cc1cc(N(C)C)sc1,3.436217186995782,0.1953257363253215,0.0,H11C8SN
C#Cc1ccsc1N(=O)=O,5.671321772193187,2.335297805156733,0.0,H3C6SNO2
C=Cc1ccsc1F,4.628413468844519,0.4974803930395866,0.0,H5C6SF
CN(C)c1ccsc1OC,3.222193935818359,-0.199653005262371,0.0,H11C7SNO
CCc1ccc(N(C)C)s1,3.313118306921388,-0.5349887989599664,0.0,H13C8SN
CCc1cc(C#C)sc1,4.644245283268537,0.5746670344065934,0.0,H8C8S
COCCOc1c(ccs1)C#N,4.694167293540522,0.5750264287613391,0.0,H9C8SNO2
C#Cc1ccc(C(=O)C)s1,5.06513732774838,1.449971550927876,0.0,H6C8SO
c1c(csc1N)C(Cl)(Cl)Cl,4.057000506219628,3.064348115870962,0.0,H4C5SNCl3
CC(=O)c1cc(NC)sc1,3.776271287709824,0.7161694931179228,0.0,H9C7SNO
c1cnc(c(Cl)n1)N,4.863619315654068,0.7956713361723815,0.0,H4C4N3Cl
C#Cc1ccsc1C(=O)C,5.222096002163744,1.4017932651819138,0.0,H6C8SO
Cn1ccc(=c2ccn(CCl)c(c2)C(Cl)(Cl)Cl)cc1,2.606762823672034,3.3468713591661072,0.0,H12C13(NCl2)2
c1c2c3c4c5c1c(=O)n(c(=O)c5cc1c4c4c5c3c(cc3c5c(cc4c([n]1)c1ccccc1)c(=O)n(c3=O)C)[n]c2c1ccccc1)C,4.796551673638168,2.375403387619008,0.0,H5C10NO
c1c2c3c4c5c1c(=O)n(c(=O)c5cc1c4c4c5c3c(cc3c5c(cc4on1c1ccccc1)c(=O)n(c3=O)C)on2c1ccccc1)C,3.692209439862927,2.649513295503857,0.0,H10C19N2O3
c1c2c3c4c5c1c(=O)n(c(=O)c5cc1c4c4c5c3c(cc3c5c(cc4c(c1)c1ccccc1)c(=O)n(c3=O)C)cc2c1ccccc1)C,4.510881286865333,2.1748487265373115,0.0,H11C21NO2
CC(=O)n1c2ccc(cc2[nH]s1)F,3.8111595825554105,2.838524490268901,0.0,H7C8SN2OF
c1ccc2c(c1)ON(Cl)O2,5.299673001716291,3.905249353248655,0.0,H4C6NClO2
CC(C)(C)c1cc(OC)sc1,4.1041371401966895,-0.7257716724947385,0.0,H14C9SO
c1c(c(cs1)C(F)(F)F)C(Cl)(Cl)Cl,5.800962916569551,2.951301771341241,0.0,H2C6S(ClF)3
c1c(c(cc2c1[nH]s[nH]2)N)N,3.1283679141830363,-0.3422993788575694,0.0,H8C6SN4