smiles,IE,EA,charge,formula_pretty
c1ccc(cc1)n1c2cccc(c2[nH]s1)C(Br)(Br)Br,3.338394196727313,2.922842631285312,0.0,H9C13SBr3N2
CC(C)(C)n1c2cc(ccc2[nH]s1)c1ccccc1,2.9147368443642336,2.079529899261252,0.0,H18C16SN2
COCCOCCOCCOc1ccc2c(c1N(=O)=O)[nH]s[nH]2,3.5048653015561286,1.991058740540757,0.0,H19C13S(NO2)3
CC(C)(C)n1c2ccccc2n(C(Cl)(Cl)Cl)s1,3.3592083910712973,4.4398015875282,0.0,H13C11SN2Cl3
C#Cn1c2cccc(c2[nH]s1)OCCOCCOC,3.1109915543944227,2.88698737443483,0.0,H16C13SN2O3
Cc1cc2c(cc1C(C)(C)C)[nH]s[nH]2,3.3456604471371976,-0.2805566563605679,0.0,H16C11SN2
COCCOCCOc1cc2c(cc1N)[nH]s[nH]2,3.193454240915889,-0.2354142766838776,0.0,H17C11S(NO)3
CC(C)(C)c1c(ccc2c1[nH]s[nH]2)c1ccccc1,3.392036509326863,0.1168232095784334,0.0,H18C16SN2
COCCOCCOCCOc1ccc2c(c1O)[nH]s[nH]2,3.3870303847739707,2.431219721054368,0.0,H20C13SN2O5
COc1cc(c2ccccc2)c2c(c1)[nH]s[nH]2,3.335212277111714,0.3133564852738346,0.0,H12C13SN2O
COCCOc1cc2c(c(c1)N(=O)=O)[nH]s[nH]2,3.441751193336677,2.1068896531956853,0.0,H11C9SN3O4
CNc1cccc2c1[nH]sn2OCCOCCOCCOC,3.863825172434736,1.855789386726974,0.0,H23C14SN3O4
COCCOCCOCCOc1ccc2c(c1)[nH]s[nH]2,3.092605940715293,-0.2110902737171271,0.0,H20C13S(NO2)2
C=Cc1c(ccc2c1[nH]s[nH]2)C(C)(C)C,3.178652518866875,2.107523836266046,0.0,H16C12SN2
CNc1c(ccc2c1[nH]s[nH]2)OCCOCCOCCOC,3.424430508044316,2.131701373955002,0.0,H23C14SN3O4
c1ccc(cc1)c1cccc2c1[nH]sn2N(=O)=O,4.061517228592129,2.9675924023591507,0.0,H9C12SN3O2
CCn1c2ccccc2n(C(C)(C)C)s1,2.7448812747003104,1.4611509398178897,0.0,H18C12SN2
CC(C)(C)c1ccc2c(c1)[nH]sn2N(=O)=O,4.017904939582513,3.434381191391003,0.0,H13C10SN3O2
CCc1ccc2c(c1)n(OCCOC)s[nH]2,3.852610231873405,1.7854590616967472,0.0,H16C11S(NO)2
c1ccc(cc1)c1ccc2c(c1)[nH]sn2C#N,3.9950511595248823,3.149725138884241,0.0,H9C13SN3
COCCOn1c2cc(ccc2[nH]s1)c1ccccc1,3.806159055393073,1.92094318952295,0.0,H16C15S(NO)2
CCc1c(ccc2c1[nH]s[nH]2)C(C)(C)C,3.3686839065027017,1.6758278165885714,0.0,H18C12SN2
CC(C)(C)n1c2cccc(c2[nH]s1)N(C)C,3.1926191317048507,1.6786034539378307,0.0,H19C12SN3
CNc1ccc2c(c1)[nH]sn2OCCOCCOC,3.6396367142602686,1.5222357237158577,0.0,H19C12S(NO)3
CN(C)n1c2cc(ccc2[nH]s1)OCCOCCOCCOC,3.4083149741214585,1.5069862546675723,0.0,H25C15SN3O4
CN(C)c1ccc2c(c1)[nH]sn2OCCOC,3.680454628165171,1.537792463697406,0.0,H17C11SN3O2
COCCOCCOn1c2cc(ccc2[nH]s1)C(=O)O,4.00516786223452,0.8252399605858955,0.0,H16C12SN2O5
c1ccc(cc1)c1ccc2c(c1)n(c1ccccc1)s[nH]2,3.184659205993376,2.1437369391111134,0.0,H14C18SN2
C#Cc1ccc2c(c1OCCOCCOCCOC)[nH]s[nH]2,3.2782317644829164,2.2019881689426257,0.0,H20C15S(NO2)2
CNc1cc(cc2c1[nH]s[nH]2)OCCOC,3.314472571231454,2.4121681305165112,0.0,H15C10SN3O2
c1ccc(cc1)n1c2cccc(c2[nH]s1)C(F)(F)F,3.3674937649208005,2.28159328463662,0.0,H9C13SN2F3
COCCOn1c2c(cccc2[nH]s1)Cl,4.134371357774944,1.8902805042103863,0.0,H11C9SN2ClO2
CC(C)(C)c1ccc2c(c1)n(OC)s[nH]2,3.859487658808212,1.7813693539661473,0.0,H16C11SN2O
CC(=O)c1cc2c(cc1C(C)(C)C)[nH]s[nH]2,3.4541396547625483,0.8515854727680563,0.0,H16C12SN2O
CC(C)(C)c1cc(c2c(c1)[nH]s[nH]2)C(=O)O,3.309949530388258,0.7993023307149998,0.0,H14C11S(NO)2
CC(C)(C)n1c2cc(ccc2[nH]s1)C(=O)O,3.0830921660686728,2.147618599481212,0.0,H14C11S(NO)2
CC(C)(C)C1=CC=c2c([CH]1)ns[nH]2.[Cl],4.324626137271116,3.701781218283577,0.0,H13C10SN2Cl
COCCOCCOCCOc1ccc2c(c1C#N)[nH]s[nH]2,3.5541517246543664,0.745964301271306,0.0,H19C14SN3O4
CC(C)(C)c1cc(cc2c1[nH]s[nH]2)OCCOCCOC,3.281833955772163,-0.3447204083335236,0.0,H24C15SN2O3
COCCOc1cc2c(cc1C(=O)O)[nH]s[nH]2,3.3653596386735445,0.8785614890417492,0.0,H12C10S(NO2)2
Cc1c(ccc2c1[nH]s[nH]2)C(C)(C)C,3.366735361885367,1.7650399793870748,0.0,H16C11SN2
CNc1cc2c(cc1OCCOCCOC)[nH]s[nH]2,3.134218601169414,2.261534317783662,0.0,H19C12S(NO)3
Cn1c2ccc(cc2[nH]s1)c1ccccc1,3.0419369398565324,2.128049399435986,0.0,H12C13SN2
C#Cc1cc(cc2c1[nH]s[nH]2)C(C)(C)C,3.325238809682196,0.4326550289166335,0.0,H14C12SN2
COCCOCCOCCOn1c2cc(ccc2[nH]s1)C(Cl)(Cl)Cl,4.029630509926937,2.6515821933659027,0.0,H19C14SN2Cl3O4
COCCOc1cccc2c1[nH]sn2N(=O)=O,3.834137315906992,3.183112592576072,0.0,H11C9SN3O4
c1ccc(cc1)c1ccc2c(c1C(=O)O)[nH]s[nH]2,3.379376252437942,0.8539456684717153,0.0,H10C13S(NO)2
Cc1cccc2c1[nH]sn2C(C)(C)C,2.8783210139896256,1.9497337533917745,0.0,H16C11SN2
CN(C)c1ccc(c2c1[nH]s[nH]2)OCCOCCOC,3.0275894492820954,2.0942488714877983,0.0,H21C13S(NO)3
C#Cc1cccc2c1n(OCCOC)s[nH]2,4.06094686165452,3.893664735159837,0.0,H12C11S(NO)2
CC(C)(C)c1ccc2c(c1C(F)(F)F)[nH]s[nH]2,3.508669765944069,0.4174426789337304,0.0,H13C11SN2F3
COCCOCCOCCOc1cc(cc2c1[nH]s[nH]2)N(=O)=O,3.3971574686380337,2.067533562041353,0.0,H19C13S(NO2)3
CC(C)(C)c1ccc2c(c1N(=O)=O)[nH]s[nH]2,3.503012032165861,1.996787463392684,0.0,H13C10SN3O2
c1ccc(cc1)c1ccc2c(c1)[nH]sn2C(Cl)(Cl)Cl,3.9069980329673855,4.287300007186422,0.0,H9C13SN2Cl3
CC(=O)c1ccc2c(c1OCCOCCOCCOC)[nH]s[nH]2,3.5543787356160466,0.8646206698700554,0.0,H22C15SN2O5
COCCOCCOCCOc1ccc2c(c1)n(O)s[nH]2,3.732715620144154,1.9904907029136667,0.0,H20C13SN2O5
COCCOCCOCCOC1=Cc2c(=C[CH]1)[nH]sn2.[Cl],4.346537519073172,3.7104300246661297,0.0,H19C13SN2ClO4
COCCOc1ccc(C#N)c2c1[nH]s[nH]2,3.4511748874152546,0.6580068172930624,0.0,H11C10SN3O2
CN(C)c1cc(cc2c1[nH]s[nH]2)OCCOC,3.3115387785997883,1.7644228823461163,0.0,H17C11SN3O2
Cc1ccc2c(c1OCCOCCOC)[nH]s[nH]2,3.479373715251859,2.17534731528358,0.0,H18C12SN2O3
CC(=O)n1c2ccccc2n(OCCOCCOCCOC)s1,4.0449882095359495,1.9550664553622483,0.0,H22C15SN2O5
c1ccc(cc1)c1cc2c(cc1C(Cl)(Cl)Cl)[nH]s[nH]2,3.5447073580886355,3.103382508599316,0.0,H9C13SN2Cl3
COCCOc1c(ccc2c1[nH]s[nH]2)C(F)(F)F,3.3607019368442708,2.2519847003073665,0.0,H11C10SN2O2F3
COCCOc1cc2c(cc1N)[nH]s[nH]2,3.217080680051004,-0.2501408027914293,0.0,H13C9SN3O2
COCCOCCOCCOc1c(ccc2c1[nH]s[nH]2)F,3.22836413615878,1.9946483248073488,0.0,H19C13SN2O4F
C#Cc1cccc2c1[nH]sn2C(C)(C)C,3.0047145586228,2.0854771186401195,0.0,H14C12SN2
COCCOCCOCCOc1cccc2c1[nH]s[nH]2,3.1712785957512097,1.950488289688656,0.0,H20C13S(NO2)2
C=Cc1cc2c(c(c1)OCCOC)[nH]s[nH]2,3.2125081063219114,1.916253073502594,0.0,H14C11S(NO)2
COCCOc1cc(cc2c1[nH]s[nH]2)N(=O)=O,3.4257511418123614,2.0719532948802226,0.0,H11C9SN3O4
COCCOCCOc1c(ccc2c1[nH]s[nH]2)c1ccccc1,3.504329642740777,2.130828212344204,0.0,H20C17SN2O3
CC(C)(C)c1cc(c2c(c1)[nH]s[nH]2)Cl,3.4860569209282404,2.024249170217081,0.0,H13C10SN2Cl
COCCOCCOc1ccc(c2c1[nH]s[nH]2)C(=O)O,3.00373957202246,2.1913954384377576,0.0,H16C12SN2O5
c1ccc(cc1)c1ccc2c(c1)n(C(=O)O)s[nH]2,3.7013208016702266,2.977188788039348,0.0,H10C13S(NO)2
CC(C)(C)n1c2cc(ccc2[nH]s1)O,2.865387326231576,2.0809010400786065,0.0,H14C10SN2O
CN(C)n1c2ccccc2n(OC)s1,3.858000668243767,1.5774741200017162,0.0,H13C9SN3O
COCCOCCOCCOn1c2cc(ccc2[nH]s1)Cl,3.9576963595405688,3.8285412349519903,0.0,H19C13SN2ClO4
c1ccc(cc1)c1cc2c(cc1N)[nH]s[nH]2,3.2499335661137594,0.1616015036648606,0.0,H11C12SN3
CC(C)(C)c1cc(c2c(c1)[nH]s[nH]2)NC,3.395265855678736,2.2538790071863333,0.0,H17C11SN3
COCCOCCOCCOn1c2ccc(cc2[nH]s1)c1ccccc1,3.954544671747135,3.717370982014109,0.0,H24C19S(NO2)2
CN(C)c1ccc(c2c1[nH]s[nH]2)C(=O)O,3.30610748706531,0.6407049758832728,0.0,H11C9SN3O2
CNc1cc2c(cc1OCCOCCOCCOC)[nH]s[nH]2,3.142029215292132,2.258421335472667,0.0,H23C14SN3O4
COCCOCCOn1c2cc(ccc2[nH]s1)C#N,4.0582063923080565,1.9540094318741468,0.0,H15C12S(NO)3
CN(C)n1c2c(cccc2[nH]s1)C(=O)O,3.643191127810133,0.9169665804161924,0.0,H11C9SN3O2
CNn1c2cc(ccc2[nH]s1)OCCOC,3.4173137760495598,1.671982377292443,0.0,H15C10SN3O2
c1ccc(cc1)c1cc(cc2c1[nH]s[nH]2)N(=O)=O,3.628719226786052,2.0462146101541294,0.0,H9C12SN3O2
c1ccc(cc1)c1ccc2c(c1)n(C(F)(F)F)s[nH]2,3.798765844848822,2.8463850427229773,0.0,H9C13SN2F3
C=Cc1ccc(c2c1[nH]s[nH]2)N(C)C,3.2951744346733904,2.0821140664280398,0.0,H13C10SN3
CN(C)n1c2cccc(c2[nH]s1)OCCOC,3.0707988955124166,2.230467665876495,0.0,H17C11SN3O2
CN(C)n1c2cc(ccc2[nH]s1)C(=O)O,3.571385717195517,0.8174711866828148,0.0,H11C9SN3O2
COCCOc1cccc2c1n(C(=O)O)s[nH]2,3.747125315954327,2.4931265036990227,0.0,H12C10S(NO2)2
COCCOCCOCCOn1c2c(cccc2[nH]s1)C(F)(F)F,4.1786576346654325,4.001186303432041,0.0,H19C14SN2O4F3
Cc1ccc2c(c1)ON(C)O2,4.09967872365778,-0.3124852234108402,0.0,H9C8NO2
CC(=O)c1cc2c(cc1C(F)(F)F)ONO2,4.864452215298661,1.321935478184605,0.0,H6C9N(OF)3
C#Cc1cc(cc2c1[nH]s[nH]2)OCCOCCOC,3.4261904668906937,0.4482147594404524,0.0,H16C13SN2O3
CN(C)N1Oc2cccc(c2O1)C(=O)O,4.47281251731838,0.9496571968316858,0.0,H10C9(NO2)2
CC(=O)c1cc2c(c(c1)OCCOCCOC)[nH]s[nH]2,3.246041576306743,0.9478512888395928,0.0,H18C13S(NO2)2
C=CN1Oc2cccc(c2O1)N(=O)=O,4.539363213783508,2.10863804446999,0.0,H3C4NO2
c1cc2c(cc1F)ON(Cl)O2,5.311068329263071,3.96434717821976,0.0,H3C6NClO2F
C=CN1Oc2cccc(C#N)c2O1,4.488260610408906,0.8234531141766639,0.0,H6C9(NO)2
c1cc2c(cc1C(Cl)(Cl)Cl)ON(Cl)O2,5.424866899834887,3.9919714839357767,0.0,H3C7N(Cl2O)2
COCCOCCOc1c(ccc2c1[nH]s[nH]2)C(=O)O,3.216159465869714,0.8255049477535068,0.0,H16C12SN2O5
C=CN1Oc2ccc(cc2O1)C(Cl)(Cl)Cl,4.394298686960246,2.777115602462436,0.0,H6C9NCl3O2
c1ccc(cc1)c1cccc2c1ON(Cl)O2,5.190860756685288,3.9027049391930633,0.0,H8C12NClO2
COCCOc1c(ccc2c1[nH]s[nH]2)O,3.182880547503009,2.478724731854163,0.0,H12C9SN2O3
Cc1cccc2c1[nH]sn2c1ccccc1,3.1676907557426603,2.229446700193512,0.0,H12C13SN2
COCCOCCOCCOn1c2c(cccc2[nH]s1)C#N,4.165851745166583,4.101542093916214,0.0,H19C14SN3O4
COc1ccc2c(c1)ON(Cl)O2,4.878343553291051,3.853423204623687,0.0,H6C7NClO3
CN(C)[N]OC1=CC=C[C](C#N)C1=O,3.856257830809773,2.4840176861558576,0.0,H9C9N3O2
C=Cc1cccc2c1[nH]sn2OCCOC,3.9576992384987535,3.737185043688078,0.0,H14C11S(NO)2
CCc1ccc2c(c1)ON(CC)O2,4.075687978510905,-0.4769836362251225,0.0,H13C10NO2
COCCOCCOCCOc1cc2c(cc1C(=O)O)[nH]s[nH]2,3.3732584176774254,0.877353983881767,0.0,H20C14S(NO3)2
CC(=O)N1Oc2ccc(cc2O1)C(Cl)(Cl)Cl,4.724017044203356,2.6907481503963937,0.0,H6C9N(ClO)3
C#Cc1cccc2c1[nH]sn2OCCOC,3.95642957437085,3.8270065319535207,0.0,H12C11S(NO)2
CC(C)(C)n1c2ccccc2n(O)s1,3.704459275611589,1.5011377309761884,0.0,H14C10SN2O
C#Cc1cc(cc2c1[nH]s[nH]2)c1ccccc1,3.46625433428344,0.5433024913159898,0.0,H10C14SN2
c1cc(c2c(c1)ON(Cl)O2)C(=O)O,5.422910646242235,3.98220508698214,0.0,H4C7NClO4
C=Cc1c(ccc2c1[nH]s[nH]2)OCCOC,3.314076338110317,0.4317948063231598,0.0,H14C11S(NO)2
C=Cc1cccc2c1ON(C=C)O2,4.23112830668615,0.5127432636851155,0.0,H9C10NO2
COCCOCCOCCOc1ccc(c2c1[nH]s[nH]2)Cl,3.109363026547362,2.235062846828077,0.0,H19C13SN2ClO4
COCCOc1cccc2c1[nH]s[nH]2,3.231707862841722,1.8834150067646989,0.0,H12C9S(NO)2
COCCOCCOCCOn1c2c(cccc2[nH]s1)C(=O)O,3.810884793836158,2.6832235741763726,0.0,H20C14S(NO3)2
CNc1ccc2c(c1)n(OCCOCCOC)s[nH]2,3.512361556162068,3.5212296781406622,0.0,H19C12S(NO)3
COc1cccc2c1[nH]sn2c1ccccc1,3.172605188808666,2.338907294544333,0.0,H12C13SN2O
CCn1c2cc(ccc2[nH]s1)N(C)C,3.0110098360870325,1.8605237620664408,0.0,H15C10SN3
COCCOCCOc1cc(cc2c1[nH]s[nH]2)F,3.213760700747662,2.150766502157785,0.0,H15C11SN2O3F
CN(C)c1cccc2c1[nH]sn2N(C)C,3.413426746870391,1.8393617028574227,0.0,H16C10SN4
c1cc(c2c(c1)ON(Cl)O2)F,5.446886316285236,3.981990993253567,0.0,H3C6NClO2F
c1cc2c(cc1O)ON(Cl)O2,4.959788768066209,4.192980988742056,0.0,H4C6NClO3
C#Cc1cc(cc2c1[nH]s[nH]2)OCCOC,3.3876437919549063,0.5658119031482785,0.0,H12C11S(NO)2
C#Cc1cccc2c1ON(Cl)O2,5.382365292448958,3.960875555306848,0.0,H4C8NClO2
COCCOCCOc1ccc(c2c1[nH]s[nH]2)OC,3.028019209546619,1.87522413803672,0.0,H18C12S(NO2)2
CNc1ccc2c(c1OCCOCCOC)[nH]s[nH]2,3.2114330144846464,2.11804182525666,0.0,H19C12S(NO)3
C=Cc1cc(cc2c1[nH]s[nH]2)N(C)C,3.2423848751655897,0.4133138276243699,0.0,H13C10SN3
C=Cc1c(ccc2c1[nH]s[nH]2)OCCOCCOCCOC,3.3172164855510347,0.4229743940682966,0.0,H22C15S(NO2)2
CNn1c2ccccc2n(OCCOCCOCCOC)s1,3.498066066540196,2.3562031195193414,0.0,H23C14SN3O4
COCCOCCOCCOn1c2c(cccc2O)[nH]s1,3.9623225369810826,1.3822052022092977,0.0,H20C13SN2O5
COCCOCCOCCOc1ccc(c2c1[nH]s[nH]2)F,3.114812144254393,2.2791875425115,0.0,H19C13SN2O4F
COCCOc1cccc2c1[nH]sn2N,3.3638635132534547,1.7327140009561846,0.0,H13C9SN3O2
CN(C)N1Oc2ccc(cc2O1)C(=O)O,4.504836433051969,0.8369941845136055,0.0,H10C9(NO2)2
C=CN1Oc2ccc(cc2O1)N(=O)=O,4.551472924512927,2.04390554736674,0.0,H3C4NO2
CCc1cccc2c1[nH]sn2OCCOC,3.889807548710087,1.5073686780029676,0.0,H16C11S(NO)2
C=Cc1cccc2c1[nH]sn2N(C)C,3.511337393150461,0.4939580862024741,0.0,H13C10SN3
CCN1Oc2ccccc2O1,4.181976607150864,-0.353583760148831,0.0,H9C8NO2
COCCOc1cc(cc2c1[nH]s[nH]2)C(Cl)(Cl)Cl,3.3265918631019304,2.911315140730585,0.0,H11C10SN2Cl3O2
Cc1cccc2c1ON(Cl)O2,5.260793379178358,3.875588487693312,0.0,H6C7NClO2
C=Cc1cccc2c1ON(Cl)O2,5.283725402850541,3.91367416912326,0.0,H6C8NClO2
C=Cc1c(ccc2c1[nH]s[nH]2)OCCOCCOC,3.3415122539823643,0.4115193103294587,0.0,H18C13SN2O3
CC(=O)N1Oc2cccc(c2O1)C(=O)O,4.690047511792363,1.1076345185116223,0.0,H7C9NO5
CN(C)c1ccc2c(c1C(F)(F)F)[nH]s[nH]2,3.3482728542745464,0.388831628553453,0.0,H10C9S(NF)3
CC(=O)c1cc(cc2c1ONO2)C(Br)(Br)Br,4.756690427684225,3.046375804982381,0.0,H6C9Br3NO3
C=CN1Oc2ccc(cc2O1)C(Br)(Br)Br,4.478289485903224,2.831565135298297,0.0,H6C9Br3NO2
c1ccc(cc1)c1cc(c2ccccc2)c2c(c1)[nH]s[nH]2,3.4089388985063125,0.3989191470587685,0.0,H14C18SN2
CCc1cccc2c1[nH]sn2c1ccccc1,3.169580191779096,2.449164591953013,0.0,H14C14SN2
COCCOCCOc1c(ccc2c1[nH]s[nH]2)C(Cl)(Cl)Cl,3.667864097742131,2.855316284208675,0.0,H15C12SN2(ClO)3
CCN1Oc2ccc(cc2O1)C(=O)O,4.436136159708985,0.8193668214822538,0.0,H9C9NO4
CC(C)(C)c1cc(cc2c1[nH]s[nH]2)OCCOCCOCCOC,3.343725929991342,2.087967558910896,0.0,H28C17S(NO2)2
CCN1Oc2cccc(c2O1)N(=O)=O,4.604018738050945,2.062636236774415,0.0,H4C4NO2
CCN1Oc2ccc(cc2O1)F,4.265342491200135,-0.0823637746892926,0.0,H8C8NO2F
COCCOCCOCCOc1cccc2c1[nH]sn2N,3.193933572163224,1.6342605093464957,0.0,H21C13SN3O4
Cc1ccc2c(c1)ON(Cl)O2,5.139884838628495,3.890450964599586,0.0,H6C7NClO2
C#Cc1ccc2c(c1C(C)(C)C)[nH]s[nH]2,3.4413930942479056,2.1101695283665323,0.0,H14C12SN2
COCCOCCOCCOn1c2cccc(c2[nH]s1)Cl,3.998658569960389,1.817987054711557,0.0,H19C13SN2ClO4
CC(C)(C)c1cccc2c1[nH]sn2OCCOCCOC,3.892751284367114,1.5802956194253055,0.0,H24C15SN2O3
C=Cc1cccc2c1[nH]sn2OCCOCCOCCOC,3.861127898440464,3.750048754643649,0.0,H22C15S(NO2)2
C=Cc1ccc2c(c1C(C)(C)C)[nH]s[nH]2,3.292366388568189,1.9472929249146549,0.0,H16C12SN2
CCN1Oc2cccc(c2O1)C(=O)O,4.37727926161242,0.9067134153352528,0.0,H9C9NO4
C#Cc1ccc2c(c1)ON(CC)O2,4.253422898249118,0.4150782817847358,0.0,H9C10NO2
COCCOc1ccc2c(c1)[nH]sn2N,3.4118688352806203,2.181040878296335,0.0,H13C9SN3O2
CCN1Oc2ccc(cc2O1)C#N,4.520024695529719,0.630423513682763,0.0,H8C9(NO)2
C#CN1Oc2cccc(c2O1)C(F)(F)F,4.778333393643697,4.521840957442327,0.0,H4C9NO2F3
C#CN1Oc2ccc(cc2O1)c1ccccc1,4.334817461754573,4.212790672112169,0.0,H9C14NO2
CCc1cccc2c1[nH]sn2OCCOCCOCCOC,3.880102146061836,1.496077572782815,0.0,H24C15S(NO2)2
c1cc(c2c(c1)ON(Cl)O2)C(F)(F)F,5.493762621672067,4.010321290168212,0.0,H3C7NClO2F3
COCCOCCOCCOc1cc2c(cc1C(F)(F)F)[nH]s[nH]2,3.512163345725276,2.3396216831621133,0.0,H19C14SN2O4F3
CN(C)n1c2cccc(c2[nH]s1)OC,3.4180215196516657,1.8885899616194368,0.0,H13C9SN3O
COCCOc1cc2c(cc1N(=O)=O)[nH]s[nH]2,3.6732634784799294,1.9755164960603,0.0,H11C9SN3O4
CC(C)(C)c1c(ccc2c1[nH]s[nH]2)N(=O)=O,3.549423812013265,1.7100386051257377,0.0,H13C10SN3O2
C#Cc1ccc2c(c1)[nH]sn2OCCOC,3.954057081851352,3.845001071787556,0.0,H12C11S(NO)2
COCCOc1cc2c(cc1OC)[nH]s[nH]2,3.4229089508604376,-0.1164661966089624,0.0,H14C10SN2O3
CN(C)c1c(ccc2c1[nH]s[nH]2)OCCOC,3.186803941965627,1.9886779811982709,0.0,H17C11SN3O2
c1cc2c(cc1N(=O)=O)ON(Cl)O2,5.661138322678744,4.075893193161027,0.0,H3C6N2ClO4
c1ccc(cc1)c1c(ccc2c1[nH]s[nH]2)C(F)(F)F,3.439723232311372,2.5962579097627896,0.0,H9C13SN2F3
c1ccc(cc1)n1c2cccc(c2[nH]s1)N(=O)=O,3.4479788641234337,2.017222921510984,0.0,H9C12SN3O2
C#Cc1cccc2c1ON(CC)O2,4.312567477814445,0.524461084227005,0.0,H9C10NO2
CCN1Oc2ccc(cc2O1)O,3.964784685569248,-0.3178030298699013,0.0,H9C8NO3
CC(C)(C)c1cccc2c1[nH]sn2C(F)(F)F,3.798779698155704,2.6504719117452624,0.0,H13C11SN2F3
Cc1cc(c2c(c1)[nH]s[nH]2)C(C)(C)C,3.2416236122095143,1.8492144034476952,0.0,H16C11SN2
c1cc(c2c(c1)ON(Cl)O2)N(=O)=O,5.596157129840867,4.067523733408597,0.0,H3C6N2ClO4
CCN1Oc2cccc(c2O1)O,4.1806018091243455,-0.4266038053050578,0.0,H9C8NO3
CCN1Oc2cccc(C#N)c2O1,4.524765658746764,0.7639878049172695,0.0,H8C9(NO)2
COCCOCCOCCOc1ccc2c(c1F)[nH]s[nH]2,3.541684317556792,2.3001041223920766,0.0,H19C13SN2O4F
c1ccc(cc1)c1c(ccc2c1[nH]s[nH]2)O,3.346368060124951,0.2038279223248538,0.0,H10C12SN2O
CCN1Oc2cccc(c2O1)NC,3.812311298932036,2.8564223099652737,0.0,H12C9(NO)2
COCCOCCOCCOc1ccc2c(c1)[nH]sn2C(F)(F)F,3.468248523278453,2.688402771289111,0.0,H19C14SN2O4F3
COCCOc1cc2c(cc1OCCOC)[nH]s[nH]2,3.4484554170863704,-0.1212013121024937,0.0,H18C12S(NO2)2
C[C]([N]N1Oc2cccc(c2O1)C(=O)O)O,4.558795426275173,1.0715805505620666,0.0,H8C9N2O5
c1cc(c2c(c1)ON(C(Cl)(Cl)Cl)O2)C(Cl)(Cl)Cl,4.948413802799768,4.640083473533741,0.0,H3C8N(Cl3O)2
C#Cc1ccc(c2c1[nH]s[nH]2)OCCOCCOC,3.00366336653824,2.245223789797456,0.0,H16C13SN2O3
C#CN1Oc2cccc(c2O1)C(Br)(Br)Br,4.713073643355164,2.7960121724696365,0.0,H4C9Br3NO2
c1cc(c2c(c1)ON(C#N)O2)C(=O)O,5.146427440363913,1.2338957586776815,0.0,H2C4NO2
C#Cc1ccc2c(c1c1ccccc1)[nH]s[nH]2,3.4363410096717417,0.500230035349523,0.0,H10C14SN2
CC(C)(C)c1cc(cc2c1[nH]s[nH]2)OC,3.3267908327303304,-0.311354699255753,0.0,H16C11SN2O
CCN1Oc2ccc(cc2O1)C(Cl)(Cl)Cl,4.418318161887873,2.78903098309238,0.0,H8C9NCl3O2
c1ccc(cc1)c1c(ccc2c1[nH]s[nH]2)N,3.2186432910471923,0.1177248288564443,0.0,H11C12SN3
C#Cc1cc2c(cc1OCCOCCOCCOC)[nH]s[nH]2,3.5366487040315406,2.3359098381566583,0.0,H20C15S(NO2)2
C=Cc1ccc(c2c1[nH]s[nH]2)OCCOCCOCCOC,3.1905953884357587,0.3268546078776126,0.0,H22C15S(NO2)2
COCCOCCOc1cc(cc2c1[nH]s[nH]2)C(Cl)(Cl)Cl,3.269882179936394,2.7282331840629923,0.0,H15C12SN2(ClO)3
CCc1ccc2c(c1)ON(Cl)O2,5.153218743254547,3.8529317833614183,0.0,H8C8NClO2
c1cc(c2c(c1)ON(N(=O)=O)O2)N(=O)=O,4.788905144164891,3.375519656468532,0.0,HC2NO2
c1ccc(cc1)c1cc2c(cc1C(F)(F)F)[nH]s[nH]2,3.4517977260635235,2.639276253170101,0.0,H9C13SN2F3
c1cc2c(cc1C(Br)(Br)Br)ON(F)O2,5.473123962519457,2.8931109807395843,0.0,H3C7Br3NO2F
CN(C)c1cccc2c1ON(F)O2,4.179927350485377,3.427836867170845,0.0,H9C8N2O2F
CC(C)(C)c1ccc2c(c1)[nH]sn2N,3.455180239850597,1.6538806790245872,0.0,H15C10SN3
C#Cc1cc2c(cc1C(C)(C)C)[nH]s[nH]2,3.3146521500399104,2.5946357793014614,0.0,H14C12SN2
c1cc2c(cc1C(Cl)(Cl)Cl)ON(F)O2,5.55853800936311,2.792353498503508,0.0,H3C7NCl3O2F
COCCOCCOc1cc2c(cc1C(F)(F)F)[nH]s[nH]2,3.508312042382022,2.358136150914652,0.0,H15C12SN2(OF)3
CCN1Oc2ccc(cc2O1)N,3.572740011442511,-0.5677788756987865,0.0,H5C4NO
c1ccc(cc1)c1ccc2c(c1)ON(Cl)O2,4.9395895564608505,3.878556036046212,0.0,H8C12NClO2
C#CN1Oc2cccc(c2O1)O,4.508113026533101,4.71302147909555,0.0,H5C8NO3
CCN1Oc2ccc(cc2O1)N(=O)=O,4.635006746336876,2.016737162933714,0.0,H4C4NO2
CC(C)(C)c1ccc2c(c1)[nH]sn2F,4.610372615230153,4.233892088026186,0.0,H13C10SN2F
COc1ccc2c(c1)ON(F)O2,4.787561105885834,3.47510952813318,0.0,H6C7NO3F
c1cc(C#N)c2c(c1)ON(O)O2,5.0908476037853685,0.8636331741887262,0.0,H4C7N2O3
CC(C)(C)c1ccc2c(c1OCCOC)[nH]s[nH]2,3.1794179778131366,1.810482312868408,0.0,H20C13S(NO)2
CCN1Oc2ccc(cc2O1)OC,3.8883780884512817,2.298399198576226,0.0,H11C9NO3
c1cc(c2c(c1)ON(O)O2)C(=O)O,4.938699145559076,0.963930982661259,0.0,H5C7NO5
CCN1Oc2cccc(c2O1)C(F)(F)F,4.458153701290575,0.3857834528731474,0.0,H8C9NO2F3
c1cc2c(cc1C(F)(F)F)ON(Cl)O2,5.522301923783379,4.004516029862861,0.0,H3C7NClO2F3
CN(C)[N]Oc1ccc(cc1[O])O,3.4261669045459717,2.296973270358285,0.0,H10C8N2O3
C=Cc1ccc2c(c1)[nH]sn2N(C)C,3.4412264762228006,0.4550335458348855,0.0,H13C10SN3
C=Cc1ccc2c(c1)[nH]sn2OCCOC,3.8990847067558208,3.7755853866779945,0.0,H14C11S(NO)2
CCN1Oc2cccc(c2O1)C(Cl)(Cl)Cl,4.407590928234276,2.935153499414446,0.0,H8C9NCl3O2
CC(C)(C)c1ccc2c(c1C(=O)O)[nH]s[nH]2,3.4361835754876666,0.7134749674747582,0.0,H14C11S(NO)2
COCCOc1ccc2c(c1)ON(F)O2,4.738139102073182,3.570339398671058,0.0,H10C9NO4F
CON1Oc2ccccc2O1,4.313808153648642,1.469749233706898,0.0,H7C7NO3
COCCOc1ccc2c(c1)[nH]sn2C(F)(F)F,3.7693646167041153,2.7446162712018123,0.0,H11C10SN2O2F3
CC(C)(C)c1ccc2c(c1)[nH]sn2C(F)(F)F,3.767793382424861,2.8092815561845783,0.0,H13C11SN2F3
CCc1ccc(c2c1[nH]s[nH]2)OCCOCCOC,3.1250996201721137,1.682185889761604,0.0,H20C13SN2O3
c1cc(c2c(c1)ON(F)O2)C(Cl)(Cl)Cl,5.60608639238635,2.7935556321404875,0.0,H3C7NCl3O2F
c1cc(c2c(c1)ON(C(F)(F)F)O2)C(F)(F)F,5.10393295962931,0.6098497863655212,0.0,H3C8N(OF3)2