smiles,IE,EA,charge,formula_pretty
CNC.[N]1[S@@]([O])(O[Mg]O[S@@]1([O])C(F)(F)F)C(F)(F)F,7.709695627739711,1.62099935978913,1.0,MgH7C4S2N2(O2F3)2
CC#N.[Mg].[B](F)(F)(F)F,8.81822879559113,1.5557068986650848,1.0,MgBH3C2NF4
[N]1[S@@]([O])(O[Zn]O[S@@]1([O])C(F)(F)F)C(F)(F)F,8.313720532052685,4.212008066097042,1.0,ZnC2S2N(O2F3)2
C[NH]1CC[NH](C)C(C1)(O)O,-0.2929913281554035,0.1030045640796744,0.0,H8C3NO
CCC1(CCCC1)N(=O)=O,6.9568441083425565,1.3171155221949449,0.0,H13C7NO2
CCC1(CCCC1)OC,5.516679853824462,-1.143694225400759,0.0,H16C8O
C=CC1(CCCC1)C(=N)O,5.554026160550711,0.0023406509350025,0.0,H13C8NO
C1C[C@H](C[C@@H]1F)F,7.203477593402203,-1.057526871189475,0.0,H8C5F2
C[NH]1CC[NH](C)[C@H](C1)O,-0.1921499151543684,-0.1985248348959429,0.0,H16C6N2O
C1C[C@H](C[C@@H]1C(Cl)(Cl)Cl)N(=O)=O,7.171115430589998,1.9511100803807493,0.0,H8C6NCl3O2
C1C[C@H](C[C@@H]1C(Cl)(Cl)Cl)C(Cl)(Cl)Cl,7.20915225293138,2.042138536280254,0.0,H8C7Cl6
C#C[C@@H]1CCC[C@@H]1CC,5.927178890112918,-0.9702430175242625,0.0,H14C9
C1COCC1.[Zn].[B](F)(F)(F)F,8.270931037544505,2.975916748365853,1.0,ZnBH8C4OF4
[Zn].[B](F)(F)(F)F.CCOCC,8.991493317612912,3.4537365017837147,1.0,ZnBH10C4OF4
S(=O)(=O)(C)C.[Mg].[B](F)(F)(F)F,7.551282521171378,1.6902372103519157,1.0,MgBH6C2S(OF2)2
[Mg][N][C][C](C#N)C#N,5.080365106597673,1.2863296327483114,1.0,MgC4N3
n12c(c(nc1C(F)(F)F)C#N)[C]=N[Mg]2,7.394388192362385,3.5599090210016584,1.0,MgC6N4F3
CN(C)[C@@H]1C=CC=C1N,3.500163927615722,-0.4647175606154632,0.0,H12C7N2
C1C[C@H](C[C@@H]1F)N(=O)=O,7.2484020853331455,1.4984309727347864,0.0,H8C5NO2F
CCC1(CCCC1)C(Cl)(Cl)Cl,6.963210791474557,2.055930060808896,0.0,H13C8Cl3
CO[C@@H]1CC[C@H](C1)F,5.790251374689978,-1.1727769754947075,0.0,H11C6OF
CO[C@@H]1CC[C@H](C1)O,5.60320831944191,-0.980852303894062,0.0,H6C3O
C#C[C@H]1CCCC[C@H]1CC,5.702403774042613,-0.9405896185257006,0.0,H8C5
C=C[C@@H]1CCC[C@@H]1OC,5.162416110786216,-1.107858610912808,0.0,H14C8O
C#C[C@@H]1CC[C@H](C1)C(Cl)(Cl)Cl,6.093917330939439,2.365788117234479,0.0,H9C8Cl3
C1CCC(C1)F,7.020247182458297,-1.1350449832592855,0.0,H9C5F
S(=O)(=O)(C)C.[N]1[S@@]([O])(O[Ca]O[S@@]1([O])C(F)(F)F)C(F)(F)F,6.505889181740349,0.243782957806252,1.0,CaH6C4S3N(OF)6
COCCOCCOC.[Mg].[B](F)(F)(F)F,7.796409771881008,0.7051051430840745,1.0,MgBH14C6O3F4
[N]1[S@@]([O])(O[Mg]O[S@@]1([O])C(F)(F)F)C(F)(F)F,6.835131595552957,1.558064433099935,1.0,MgC2S2N(O2F3)2
C=CC1(C=C)CCCC1,5.232444577560818,-0.6033364677045028,0.0,H14C9
C=CC1(CC)CCCC1,5.374249703819805,-1.0858662361792084,0.0,H16C9
C[C@@H]1CCC[C@@H]1N(=O)=O,6.772909594642988,1.295675636539818,0.0,H11C6NO2
C1C[C@H]([C@H](C1)N(=O)=O)C(=N)O,5.72892214653948,2.1009595552237443,0.0,H10C6N2O3
CO[C@@H]1CC[C@H](C1)N(=O)=O,6.029510506375663,1.4182159974385289,0.0,H11C6NO3
C[C@@H]1CCC[C@@H]1O,5.379650848062374,-0.8502257529566122,0.0,H12C6O
CO[C@H]1CCC[C@H]1O,4.903094603550562,-0.9169099403119616,0.0,H6C3O
C[C@@H]1CC[C@H](C1)F,6.632388312416515,-1.2111754997262325,0.0,H11C6F
C1C[C@H](C[C@@H]1C(=N)O)O,5.589497940938236,-0.6322230464233143,0.0,H11C6NO2
C1CCC(C1)(C(=N)O)C(=N)O,6.300535898758971,-0.0514848005572274,0.0,H12C7(NO)2
C1C[C@H](C[C@@H]1C#N)F,7.461567066131101,-0.2471175240629235,0.0,H8C6NF
C1C[C@H]([C@H](C1)C(=N)O)C(=N)O,6.08808337461196,-0.4803425746526044,0.0,H12C7(NO)2
C#C[C@@H]1CC[C@H](C1)F,6.134961690244017,-0.2899342302702279,0.0,H9C7F
C#Cc1ccc2c(c1OC)ONO2,4.4975463264469,0.4184843660746993,0.0,H7C9NO3
CCC1(CCCC1)C(=N)O,5.621942729712464,-0.6174663510540994,0.0,H15C8NO
C1C[C@H]([C@H](C1)F)C(=N)O,5.840660103585469,-0.749295575160795,0.0,H10C6NOF
C[C@@H]1CC[C@H](C1)O,5.851741518370181,-0.9445831576198542,0.0,H12C6O
C=C[C@@H]1CCC[C@@H]1C#N,5.843988504964363,-0.7762101737993361,0.0,H11C8N
C=C[C@@H]1CC[C@@H](C)C1,5.496467163538545,-1.0233819272692926,0.0,H7C4
C#C[C@@H]1CCC[C@@H]1C#N,6.1568315851433,-0.5221362800370115,0.0,H9C8N
C#C[C@@H]1CCC[C@@H]1C=C,5.639419255119355,-1.053099442784878,0.0,H4C3
CC[C@@H]1CC[C@H](C1)C(Cl)(Cl)Cl,6.303767923201667,2.413022053669556,0.0,H13C8Cl3
COCCOCCOCCOCCOC.[N]1[S@@]([O])(O[Zn]O[S@@]1([O])C(F)(F)F)C(F)(F)F,6.508126575188362,1.0033000345662004,1.0,ZnH22C12S2N(O3F2)3
[Zn]12[C@@H]3[C]([B@@](c4ccccc4)([C]4[C@H]1C=CC=C4)[C@]12C=C[CH]C=C1)C=CC=C3,5.286962968602893,4.107491793794907,1.0,ZnB(H5C6)4
[Mg]1[C@@H]2[C]([B](c3ccccc3)(c3ccccc3)[C@]31C=C[CH]C=C3)C=CC=C2,4.6118442640123245,1.4832058562293242,1.0,MgB(H5C6)4
C=CC1=CC=C[C@@H]1F,4.3812104031636405,1.180982041790776,0.0,H7C7F
c1ccc(cc1)C1(CCCC1)C(Cl)(Cl)Cl,5.71283623050258,2.137385448034911,0.0,H13(C4Cl)3
CCC1(CCCC1)C#N,6.660058326314902,-0.9871175130541814,0.0,H13C8N
C1C[C@H]([C@H](C1)O)C(=N)O,5.810366795159643,-0.7722583704711723,0.0,H11C6NO2
C1C[C@H](C[C@@H]1C(=O)[O])[NH3],3.712255930293032,-0.0924550265994184,0.0,H11C6NO2
C#CC(=C)N(C)CCNC.F,4.404132769517309,0.6271932312589343,0.0,H15C8N2F
[Mg].[B](F)(F)(F)F.CCOCC,8.723739452930749,2.408095285683521,1.0,MgBH10C4OF4
CN(C)[N]Oc1c(cccc1[O])O,3.408936977380654,2.2989348383394828,0.0,H10C8N2O3
C#CC1(C=C)CCCC1,5.699757287805914,-0.3120002090785418,0.0,H4C3
C#C[C@@H]1CCC[C@@H]1C(=N)O,5.803960478642329,-0.1961930931633104,0.0,H11C8NO
CC[C@@H]1CCC[C@@H]1C(Cl)(Cl)Cl,6.590847197026596,2.252034542647016,0.0,H13C8Cl3
C(S1(O[Zn]O1)[O])(F)(F)F,9.618218464471283,3.9030470776488073,1.0,ZnCS(OF)3
COCCOCCOCCOCCOC.[N]1[S@@]([O])(O[Mg]O[S@@]1([O])C(F)(F)F)C(F)(F)F,6.532493408894515,1.9420122483803424,1.0,MgH22C12S2N(O3F2)3
[Mg].[BH4],6.245958018472811,1.2386162426078955,1.0,MgBH4
c1cc2c(c(c1)O)[nH]sn2O,3.914458975371963,1.7453281345529832,0.0,H6C6S(NO)2
C1C[C@H](C[C@@H]1[NH3])[NH3],-0.1801297842997882,-0.0216589596824632,0.0,H14C5N2
C1C[C@H]([C@H](C1)F)F,6.677765463014657,-0.9119611995451122,0.0,H8C5F2
C1C[C@H]([C@H](C1)F)C(Cl)(Cl)Cl,7.0417026555092885,2.526536227190809,0.0,H8C6Cl3F
CNCCNC.C(#N)C=C,3.954546840495459,0.7928564436857415,0.0,H15C7N3
C1C[C@@H](C#N)[C@H](C1)C#N,7.538107130270509,-0.4404610408222651,0.0,H8C7N2
COC1(CCCC1)OC,5.721790672817951,-1.1547645324975746,0.0,H14C7O2
C#CC1(CC)CCCC1,5.919824879965381,-1.1385058904783365,0.0,H14C9
C#CC1(CCCC1)C(Cl)(Cl)Cl,6.43459823220619,2.133240163604205,0.0,H9C8Cl3
C1C[C@H]([C@H](C1)O)N(=O)=O,6.369659317767946,1.808686228197621,0.0,H9C5NO3
CO[C@H]1CCC[C@H]1F,5.711648303882248,-0.9865195537517136,0.0,H11C6OF
C1C[C@H](C[C@@H]1C#N)N(=O)=O,7.373310234017117,1.5391539506195842,0.0,H4C3NO
CN1CCN(C)C=C1F.F.[H].[H],3.254030982823315,-0.7783578595648577,0.0,H7C3NF
C[NH2][C@@H]1CC[C@H](C1)C(=O)[O],3.7082051566154406,-0.1982452216001546,0.0,H13C7NO2
CC[C@@H]1CC[C@H](C1)C#N,6.706178206226104,-0.6909719877043243,0.0,H13C8N
COCCOCCOC.[N]1[S@@]([O])(O[Mg]O[S@@]1([O])C(F)(F)F)C(F)(F)F,7.293926311301766,0.3811793084983947,1.0,MgH14C8S2NO7F6
C#C[C@@H]1CCC[C@@H]1C#C,5.761432552844417,-0.5754959506924933,0.0,H10C9
[N]1[S@](O[Mg]O[S@]1([O])F)([O])F,7.121156413320568,1.5786052591298358,1.0,MgS2N(O2F)2
[B@]1(c2cc(cc(c2)C(F)(F)F)C(F)(F)F)([C]2C=C(C=C([C@@H]2[Zn][C@H]2C(=C[C]1C=C2C(F)(F)F)C(F)(F)F)C(F)(F)F)C(F)(F)F)c1c(cc(cc1)C(F)(F)F)C(F)(F)F,7.063103651249548,5.76423400719068,1.0,ZnBH12(C4F3)8
C=CC1(CCCC1)C#N,5.906302937329746,-0.1124727573191193,0.0,H11C8N
C#CC1(C)CCCC1,5.77362442562262,-0.876986921750722,0.0,H3C2
C[NH2][C@@H]1CC[C@H](C1)[NH3],-0.1937944841160059,-0.2650459253804,0.0,H8C3N
C1C[C@H](C[C@@H]1C(=N)O)F,5.953340859935997,-0.5928104917096788,0.0,H10C6NOF
C1C[C@H]([C@H](C1)N(=O)=O)C(Cl)(Cl)Cl,6.7686953637690745,2.6040734110516497,0.0,H8C6NCl3O2
CC[C@@H]1CC[C@@H](C)C1,6.009306885267142,-0.950250367292392,0.0,H2C
C#C[C@@H]1CC[C@@H](CC)C1,6.111211751198061,-0.8318005681052454,0.0,H14C9
C1COCC1.[N]1[S@@]([O])(O[Mg]O[S@@]1([O])C(F)(F)F)C(F)(F)F,7.434173024530173,1.4354177000874189,1.0,MgH8C6S2NO5F6
Br[Zn],7.815021219823393,3.402799269009847,1.0,ZnBr
Cl[Mg],6.536731247209536,1.2676685364545848,1.0,MgCl
[B]12(OC(=O)C(=O)O1)OC(=O)C(=O)O2.[Mg],7.025723230204312,2.1230994146950253,1.0,MgB(CO2)4
C1CCC(C1)(C#N)C(=N)O,6.255674074649141,0.4920736745349132,0.0,H10C7N2O
C#C[C@@H]1CC[C@@H](C#C)C1,5.7441266242818525,-0.7706824315922858,0.0,H10C9
C1CCC(C1)(F)F,7.193584233130968,-1.174631548396428,0.0,H8C5F2
[Zn]O[CH]N(C)C.[B](F)(F)(F)F,6.769735388291883,2.3746068478300004,1.0,ZnBH7C3NOF4
CNc1ccc2c(c1)[nH]sn2C,3.027201066631824,1.949824614928366,0.0,H11C8SN3
C#CC1(CCCC1)OC,5.627513120397998,-0.2851112462871241,0.0,H12C8O
C#CC1(CCCC1)C#N,6.363899410678277,0.2830482364021009,0.0,H9C8N
C1C[C@H]([C@H](C1)O)F,5.877834534545036,-0.7173022626651799,0.0,H9C5OF
C1C[C@H](C[C@@H]1F)O,5.941933036272166,-0.8387079252028342,0.0,H9C5OF
CO[C@H]1CCC[C@H]1N(=O)=O,6.122139065189549,1.3871932170855872,0.0,H11C6NO3
COC(OC)C.[Mg].[B](F)(F)(F)F,8.061721657051384,1.6032846182839422,1.0,MgBH10C4(OF2)2
S(=O)(=O)(C)C.[N]1[S@@]([O])(O[Mg]O[S@@]1([O])C(F)(F)F)C(F)(F)F,6.821680086033302,2.204295569122769,1.0,MgH6C4S3N(OF)6
n1(c(c(nc1C(F)(F)F)C#N)C#N)[Zn],7.504235199245159,4.144744325254578,1.0,ZnC6N4F3
c1cc2c(cc1C(Cl)(Cl)Cl)ON(N(=O)=O)O2,4.6066188701239295,3.3140426177720657,0.0,H3C7N2Cl3O4
C1C[C@H](C[C@@H]1C(=N)O)N(=O)=O,6.168554289309759,1.5226194450202457,0.0,H10C6N2O3
C1C[C@H](C[C@@H]1C#N)C(Cl)(Cl)Cl,7.254698717749852,2.4329716470907443,0.0,H8C7NCl3
C#C[C@@H]1CCC[C@@H]1OC,5.249305840415763,-0.7080176894509349,0.0,H12C8O
C=C[C@H]1CCC[C@H]1C,5.35124318645976,-0.7444521351302682,0.0,H7C4
C=C[C@@H]1CCC[C@@H]1CC,5.464288723827485,-1.0291978737390308,0.0,H16C9
C1C[C@H]([C@H](C1)C(Cl)(Cl)Cl)C(=N)O,6.004315874082385,2.225036037701648,0.0,H10C7NCl3O
[Mg].[B](F)(F)(F)F,8.702567915997497,1.6465511458387485,1.0,MgBF4
[Mg]O[C]1OC[C@@H](O1)C.[B](F)(F)(F)F,7.646111396604828,1.5332221675540496,1.0,MgBH6C4O3F4
CN(C)c1ccccc1.[Mg].[B](F)(F)(F)F,6.54867198069187,2.404605025692581,1.0,MgBH11C8NF4
CC[C@H]1C=CC=C1O,3.860630134198437,-0.2318200800931662,0.0,H10C7O
C[C@@H]1CC[C@H](C1)N(=O)=O,6.052773465473001,1.5455256723140338,0.0,H11C6NO2
C1C[C@H](C[C@@H]1N(=O)=O)O,6.171917513098014,1.4828871465902922,0.0,H9C5NO3
C[NH]1C[C@H]([NH](C)[C@H](C1)O)O,-0.0543432875423604,-0.0077516894292783,0.0,H8C3NO
C#C[C@@H]1CCC[C@@H]1F,6.089202564118386,-0.6645869874540948,0.0,H9C7F
C=C[C@@H]1CC[C@H](C1)OC,5.112112709782741,-0.7269232310485676,0.0,H14C8O
C#C[C@@H]1CC[C@H](C1)C#N,6.379538293920268,-0.2406313883897382,0.0,H9C8N
CC[C@@H]1CC[C@H](C1)OC,5.65854669006294,-1.1987886922146571,0.0,H16C8O
CC[C@@H]1CCC[C@@H]1OC,5.545799888962938,-1.0482991558186767,0.0,H16C8O
C1C[C@H](C[C@@H]1C(=N)O)C(=N)O,5.996391097156083,-0.4449474127781285,0.0,H12C7(NO)2
C=C[C@@H]1CC[C@H](C1)C(=N)O,5.515582750099929,-0.4782990889438223,0.0,H13C8NO
[Ca]O[CH]N(C)C.[B](F)(F)(F)F,6.178460776741849,0.231759082665667,1.0,CaBH7C3NOF4
[N]1[S@](O[Zn]O[S@]1([O])F)([O])F,8.549721130853868,4.146342686566641,1.0,ZnS2N(O2F)2
C#CC=C.CNCCNC,4.018216752110311,0.540193258729778,0.0,H8C4N
CC[C@H]1C=CC=C1OC,3.752035498602345,-0.1801080478475341,0.0,H12C8O
C1C[C@H]([C@H](C1)O)O,5.299596392763851,-0.8628810338726907,0.0,H10C5O2
C1C[C@H]([C@H](C1)[NH3])[NH3],0.3151703172075941,-0.4965056136283237,0.0,H14C5N2
C1C[C@H]([C@H](C1)N(=O)=O)N(=O)=O,6.762710168187914,1.761857074697764,0.0,H8C5(NO2)2
[Mg].[B](F)(F)(F)F.O1CCC[C@@H]1C,7.8200713871825425,2.148437079807627,1.0,MgBH10C5OF4
[Mg]N([Si](C)(C)C)[Si](C)(C)C,4.428955429256893,1.869752415828407,1.0,MgSi2H18C6N
C#CC1(CCCC1)N(=O)=O,6.967500609185299,1.6103983526933008,0.0,H9C7NO2
COC1(CCCC1)C(=N)O,5.733045353375564,-0.8091388341148558,0.0,H13C7NO2
C=CC1(CCCC1)C(Cl)(Cl)Cl,5.995714036894787,2.1813842576244498,0.0,H11C8Cl3
C#CC1(C#C)CCCC1,5.999806648250887,-0.1356287406673799,0.0,H10C9
CC[C@@H]1CC[C@H](C1)[C]([NH])O,5.870016366197524,-0.7708802607598044,0.0,H15C8NO
C1C[C@@H](C#N)[C@H](C1)F,7.254209457497927,-0.6668040899479819,0.0,H8C6NF
C=C[C@@H]1CCC[C@@H]1N(=O)=O,5.962176519112836,1.3520519500685624,0.0,H11C7NO2
C1C[C@@H](C#N)[C@H](C1)C(Cl)(Cl)Cl,7.050460987383849,2.288218835661246,0.0,H8C7NCl3
C#C[C@@H]1CC[C@H](C1)C(=N)O,5.690856675004033,-0.4593516037206426,0.0,H11C8NO
CC[C@@H]1CCC[C@@H]1C(=N)O,5.617741760078934,-0.4874934454768662,0.0,H15C8NO
CC1(CCCC1)N(=O)=O,6.902195407552062,1.349733276112238,0.0,H11C6NO2
C#C[C@H]1CCC[C@H]1C,5.738324721863682,-0.6551484577325026,0.0,H3C2
C#C[C@@H]1CC[C@H](C1)OC,5.431393427806688,-0.6557003562978934,0.0,H12C8O
C=C[C@@H]1CCC[C@@H]1C=C,5.346456479493645,-0.9665802943476592,0.0,H14C9
c1ccc(cc1)C1CCCC1,5.267367987507532,-0.8332234541507204,0.0,H14C11
CC1(CCCC1)O,5.706708417069967,-0.8493512502267548,0.0,H12C6O
C#C[C@@H]1CC[C@H](CC1)O,5.8421500944001306,-0.9423341729983804,0.0,H12C8O
CCC1(CCCCC1)O,5.463157621772188,-0.7932096151820587,0.0,H16C8O
COC1(CCCCC1)OC,5.454841988853877,-0.985568561189575,0.0,H8C4O
C[NH2][C@@H]1CC[C@H](CC1)C(=O)[O],3.841642844161106,-0.2278515011224953,0.0,H15C8NO2
C=C[C@@H]1CCC[C@@H]1O,4.949351800970907,-0.39526681646239,0.0,H12C7O
C#CC1(CCCC1)O,5.567260814375549,-0.5235025608984869,0.0,H10C7O
CNC.CNC.CNCC[NH](C)[C][CH2],2.0813488605432213,-0.337269863403344,0.0,H14C5N2
CC1(CCCCC1)C(=N)O,5.627982122204776,-0.7061909511561679,0.0,H15C8NO
C1C[C@H](C[C@H](C1)N(=O)=O)N(=O)=O,7.276418851187918,1.5775713350609295,0.0,H5C3NO2
C#C[C@@H]1CC[C@H](C1)O,5.629762318148641,-0.6046197696563467,0.0,H10C7O
CNC.CN1C[C@@H](C(=O)O)[NH](C)[CH]C1,2.491518406158866,-0.1862362610212584,0.0,H21C9N3O2
C1CCC2(CC1)C(=O)O2.C(=O)=O,5.978355555203597,2.534879675587581,0.0,H5(C2O)2
C1CCC(C1)C(=N)O,5.604986747710063,-0.7825698498058045,0.0,H11C6NO
CC1(CCCC1)C#N,6.501653035953131,-0.8657906699685554,0.0,H11C7N
CC1(CCCC1)C(Cl)(Cl)Cl,6.996752687571279,2.0558079469788937,0.0,H11C7Cl3
C1CCC(C1)(C#N)C#N,7.587065998473554,0.4447739552266285,0.0,H8C7N2
CCC(=C)c1ccccc1.CNCCNC,3.077989669685485,0.337176002789056,0.0,H12C7N
CNCCNC.c1ccc(cc1)C(=C)c1ccccc1,4.060118435566983,0.468311816786445,0.0,H12C9N
C=C[C@@H]1CC[C@H](CC1)O,5.559503929128914,-0.8749874782446567,0.0,H14C8O
C1CCC(CC1)(C#N)C(=N)O,4.664361154569269,0.6278141651033367,0.0,H12C8N2O
C1C[C@H](C[C@H](C1)N(=O)=O)C#N,7.037741036323132,1.5416140884059133,0.0,H10C7(NO)2
CC1(CCCC1)F,6.491956452240265,-0.9929601157986324,0.0,H11C6F
C1CCC(C1)(F)N(=O)=O,6.126497999813728,1.710054970074998,0.0,H8C5NO2F
C=CC1(C)CCCC1,5.578051647029133,-1.1925325988708209,0.0,H7C4
COc1cc(cc2c1ONO2)c1ccccc1,4.301666660024784,0.3646904153407377,0.0,H11C13NO3
C#C[C@@H]1CC[C@H](CC1)N(=O)=O,6.140785097386106,1.5838506479391072,0.0,H11C8NO2
COC1(CCCCC1)C#N,5.982837727276637,-0.6454964955213653,0.0,H13C8NO
C#CC1(CCCCC1)C#N,6.311092395064042,0.2173847562185984,0.0,H11C9N
C1C[C@H](C[C@H](C1)O)O,5.650314564803557,-1.044680946967128,0.0,H6C3O
C1C[C@H](C[C@H](C1)O)F,5.904509486721144,-0.9621411052907204,0.0,H11C6OF
C=C[C@@H]1CC[C@H](C1)F,5.443344126093143,-0.6697533271875726,0.0,H11C7F
C1CCC(C1)C(Cl)(Cl)Cl,6.706846541362756,2.5164038643284585,0.0,H3C2Cl
C=CC1(CCCC1)O,5.1977285017979735,-0.7134618682979634,0.0,H12C7O
C=C[C@@H]1CC[C@@H](CC)C1,5.671159128938234,-0.9512904402203276,0.0,H16C9
CCC1CCCC1,6.323273489926214,-1.103261269178256,0.0,H2C
CCC1(CCCC1)O,5.691686521614974,-0.8812143698509316,0.0,H14C7O
C1C[C@H](CC[C@@H]1C(=O)[O])[NH3],3.832610800812836,-0.109604617593868,0.0,H13C7NO2
C1C[C@H](C[C@@H]1C#N)O,6.180979960397599,-0.3185165939907164,0.0,H9C6NO
C[C@@H]1CC[C@H](C1)C#N,7.0154042089921855,-0.7035331303981365,0.0,H11C7N
C=C[C@@H]1CC[C@H](C1)N(=O)=O,5.581147395816151,1.5611990865541885,0.0,H11C7NO2
CNC[C@H](c1ccccc1)NC.C(#N)C=C,4.076320607809612,0.7823585584643298,0.0,H19C13N3
COC1(CCCCC1)N(=O)=O,4.677278610733628,1.554796560865361,0.0,H13C7NO3
C1C[C@H](C[C@H](C1)O)N(=O)=O,6.394823184691267,1.4588838232863055,0.0,H11C6NO3
C1CC[C@H]([C@H](C1)[NH3])[NH3],0.1660123873512931,-0.4508488653249514,0.0,H8C3N
C1C[C@H](C[C@H](C1)F)C(=N)O,5.709315596157103,-0.8107285054760722,0.0,H12C7NOF
CO[C@H]1CCC[C@H]1C#N,5.989838051221886,-0.7360013006113149,0.0,H11C7NO
CNC[C@@H](c1ccccc1)NC.C(#N)C=C,4.020652908393094,0.8640505233503064,0.0,H19C13N3
c1ccc(cc1)[C@@H]1CCC[C@@H]1F,5.394851021664726,-0.7388569286635174,0.0,H13C11F
CO[C@@H]1CC[C@H](CC1)N(=O)=O,5.906625499681104,1.4486011497298024,0.0,H13C7NO3
CC1(CCCCC1)N(=O)=O,6.961766329522652,1.3176959219923448,0.0,H13C7NO2
CC[C@H](CNC)NC.C(#N)C=C,3.9285960185476143,0.8331431423954201,0.0,H19(C3N)3
c1ccc(cc1)C1(CCCC1)C#N,5.46619297544712,-0.1368917116891679,0.0,H13C12N
C#C[C@@H]1CC[C@@H](C=C)C1,5.403090508265086,-0.6731651802914711,0.0,H4C3
C1CCC(C1)N(=O)=O,6.981868119809951,1.4120611005142565,0.0,H9C5NO2
CNCCNC.COC(=C)c1ccccc1,3.2186802631564206,0.396590304315032,0.0,H22C13N2O
C1CCC(CC1)(C(=N)O)N(=O)=O,6.014052477139193,2.150811033586797,0.0,H12C7N2O3
C#C[C@H]1CCCC[C@H]1C=C,5.339435549305199,-0.7675202374924992,0.0,H7C5
C1CC[C@H]([C@H](C1)N(=O)=O)O,6.201448257208176,1.7699541457855958,0.0,H11C6NO3
C=C[C@H]1CCCC[C@H]1C=C,5.168027798773982,-0.7907083175672596,0.0,H8C5
C[C@@H]1CC[C@H](C1)C(Cl)(Cl)Cl,6.32496067956672,2.395578038225358,0.0,H11C7Cl3
CC1(C)CCCC1,5.776577266222011,-1.0493098645905774,0.0,H2C
CNCCNC.c1ccc(cc1)C(=C)C(=N)O,3.95268739411913,0.8025434106180911,0.0,H21C13N3O
CN[C@@H](CN(C)C=C)c1ccccc1.[N]([O])O,3.8287693833604863,1.5183217362115102,0.0,H19C12N3O2
CC(C)(C)c1cc2c(cc1NC)[nH]s[nH]2,3.136289912663051,-0.359392693988775,0.0,H17C11SN3
C1C[C@H](CC[C@@H]1C#N)C#N,6.96357260634395,-0.8171053436202782,0.0,H5C4N
C#CC1(CCCCC1)N(=O)=O,5.429902671188392,1.7408377636907972,0.0,H11C8NO2
C1C[C@H](C[C@H](C1)F)F,6.74192416214064,-0.946830290906655,0.0,H5C3F
C#CC1(CCCCC1)C(=N)O,5.707142416127317,-0.8305460039486205,0.0,H13C9NO
C=C[C@@H]1CC[C@H](C1)O,5.446171854191197,-0.7242998386740509,0.0,H12C7O
C1C[C@@H](C#N)[C@H](C1)N(=O)=O,7.369861392325765,1.5884902625035466,0.0,H4C3NO
COC1(CCCC1)F,6.027047293705982,-1.041727459389585,0.0,H11C6OF
C1CCC(C1)(C(=N)O)O,5.781170745019699,-0.5816493557307694,0.0,H11C6NO2
C=CC1CCCC1,5.454841907826994,-0.8647271195408393,0.0,H12C7
C1C[C@H](CC[C@@H]1C(=N)O)N(=O)=O,5.781238649747683,1.5940914236794923,0.0,H12C7N2O3
C=C[C@@H]1CC[C@H](CC1)OC,5.431097816939291,-0.9190577892644796,0.0,H16C9O
CO[C@H]1CCC[C@H]1C(=N)O,5.495225502943503,-0.6658404934554709,0.0,H13C7NO2
C1CCC(CC1)(N(=O)=O)O,4.75551433530527,1.7906363376801893,0.0,H11C6NO3
C1CCC(CC1)(C(=N)O)O,5.715078603736037,-0.6863003425627539,0.0,H13C7NO2
C=CC1(CCCCC1)OC,5.349235595865684,-0.63275238403221,0.0,H16C9O
C1C[C@H](C[C@H](C1)F)C(Cl)(Cl)Cl,6.986516482889419,2.0398153261936387,0.0,H10C7Cl3F
CC[C@@H]1CCC[C@@H]1F,6.140819552441462,-0.857838989308584,0.0,H13C7F
c1ccc(cc1)C1(CCCC1)O,5.178551855904152,-0.6843591680884855,0.0,H14C11O
CC[C@@H]1CC[C@H](C1)c1ccccc1,5.242938095814315,-0.8970523075298842,0.0,H18C13
C1CCC(C1)(F)O,6.448576293490623,-0.7562540895927667,0.0,H9C5OF
C[NH](CCNC)[C@H](c1ccccc1)C=C(Cl)Cl.[Cl],4.035069159415434,1.6822528488206443,0.0,H19C13N2Cl3
C1CCC(CC1)(C#N)C(Cl)(Cl)Cl,7.025334484229097,2.396841732306348,0.0,H10C8NCl3
C=CC1CCCCC1,5.4034388058131295,-0.7492198661861038,0.0,H7C4
C1C[C@H](C[C@H](C1)[NH3])[NH3],-0.2470906243528587,-0.0255850480774824,0.0,H8C3N
CC[C@@H]1CCC[C@@H]1N(=O)=O,6.816586028234815,1.291995800121731,0.0,H13C7NO2
C1CC[C@H]([C@H](C1)C(=N)O)N(=O)=O,5.896396957732213,1.8927280945732488,0.0,H12C7N2O3
COC1(CCCC1)C#N,6.049104853913013,0.0600087571398035,0.0,H11C7NO
C1CCC(C1)(C(Cl)(Cl)Cl)N(=O)=O,6.930274571831978,2.454936809439096,0.0,H8C6NCl3O2
CC1(CCCC1)C(=N)O,5.604310348900617,-0.6172178594173601,0.0,H13C7NO
C1CCC(C1)(C(Cl)(Cl)Cl)F,7.245457478771277,2.231394576470484,0.0,H8C6Cl3F
CN(CC=C(Cl)Cl)C(=C(Cl)Cl)CNC.Cl.Cl,4.155171617161249,2.8193114300898743,0.0,H7C4NCl3
C1CC[C@H]([C@H](C1)F)N(=O)=O,7.109136320082689,1.4617725376643649,0.0,H10C6NO2F
C1C[C@H](C[C@H](C1)N(=O)=O)C(=N)O,5.806463771297421,1.6222501773059776,0.0,H12C7N2O3
COC1(CCCC1)O,5.480425216661024,-0.8597899375385167,0.0,H6C3O
C=C[C@@H]1CC[C@@H](C=C)C1,5.183841727158869,-0.9442212715843196,0.0,H14C9
COC1CCCC1,5.422102887197616,-0.9896076040389744,0.0,H12C6O
C1CCC(C1)(N(=O)=O)N(=O)=O,7.066686129464506,2.2341016466903967,0.0,H8C5(NO2)2
CNn1c2cccc(c3ccccc3)c2[nH]s1,3.4934478783630767,0.3108838929489139,0.0,H13C13SN3
COC1(CCCCC1)C(=N)O,5.48545021057871,-0.768415350523719,0.0,H15C8NO2
C#C[C@@H]1CC[C@H](CC1)C(=N)O,5.723642259146436,-0.7026149617053306,0.0,H13C9NO
C1C[C@H](C[C@H](C1)N(=O)=O)F,6.899593416819334,1.523857233783565,0.0,H10C6NO2F
C1CCC(C1)C#N,7.190068568442802,-0.6899795803286906,0.0,H9C6N