smiles,IE,EA,charge,formula_pretty
c1c[nH]c(=O)c(C(Cl)(Cl)Cl)n1,5.423978497137432,3.261590849485947,0.0,H3C5N2Cl3O
CC(C)(C)c1c(C#N)nccn1,5.843508211846347,1.396213554596761,0.0,H11(C3N)3
COCCOCCOc1cnc(cn1)N,4.231565307900018,0.5388440502880258,0.0,H5C3NO
c1cnc(c(C(=O)O)n1)C(Cl)(Cl)Cl,6.103560906596249,2.8093588555653697,0.0,H3C6N2Cl3O2
c1ccc(cc1)c1c(C#N)nccn1,5.44217152225392,1.4620012928386132,0.0,H7C11N3
c1c[nH]c(=O)c(C(Br)(Br)Br)n1,5.376436631247634,3.375613454112317,0.0,H3C5Br3N2O
c1cnc(c(C#N)n1)C(Cl)(Cl)Cl,6.44129788177961,2.855217896017712,0.0,H2C6(NCl)3
c1cnc(c(C(F)(F)F)n1)N,5.166112062926549,1.0716752216918397,0.0,H4C5(NF)3
COCCOCCOCCOc1cnc(C#N)cn1,5.684077263483777,1.169130390216742,0.0,H17C12N3O4
COCCOCCOCCOc1cnc(cn1)C(=O)O,5.645397693593258,1.1505267997468764,0.0,H9C6NO3
COCCOc1c[nH]c(=O)cn1,4.432623404072364,1.1407249790005154,0.0,H10C7N2O3
CNc1cnc(cn1)OCCOC,3.987012628292723,0.4935863242768392,0.0,H13C8N3O2
c1cnc(c(C#N)n1)C(F)(F)F,6.560744131542014,1.8259229772571417,0.0,H2C6(NF)3
c1c(C(Cl)(Cl)Cl)ncc(C(F)(F)F)n1,6.380377378454432,2.8668631710112096,0.0,H2C6N2(ClF)3
CNc1ccc2c(c1)ON(N(=O)=O)O2,4.129114733388269,3.391124361967377,0.0,H7C7N3O4
COCCOCCOc1cnc(C#N)cn1,5.663133404193649,1.1590089445649938,0.0,H13C10(NO)3
CNc1ccc(c2c1ONO2)C(Br)(Br)Br,4.236205014860024,3.0798888500663453,0.0,H7C8Br3(NO)2
Cc1ccc2c(c1N(C)C)ONO2,3.98369247483206,-0.193621694552712,0.0,H12C9(NO)2
C1CCc2c(C1)c(c(c(c2F)O)O)Cl,4.587388307599758,1.145262852778251,0.0,H10C10ClO2F
CC(=O)c1cnc(C#N)cn1,5.962294049484262,2.195798074358754,0.0,H5C7N3O
CN(C)c1cc(c2c(c1)ONO2)N(=O)=O,3.972924375118601,2.0465903585551133,0.0,H9C8N3O4
CN(C)c1c[nH]c(=O)cn1,3.682799985502789,1.0123933906248568,0.0,H9C6N3O
c1c(C(=O)O)ncc(Cl)n1,6.186146449793887,1.654165149551409,0.0,H3C5N2ClO2
CN(C)N1Oc2cccc(c2O1)C(F)(F)F,4.540963811874098,0.4155074161913945,0.0,H9C9N2O2F3
C#Cc1c2CCCCc2c(c(c1O)O)F,4.54862295110579,0.2236370016013098,0.0,H11C12O2F
C=Cc1cnc(cn1)NC,4.141471518039543,0.6806256161704369,0.0,H9C7N3
CN(C)[N]Oc1ccc(cc1[O])N(=O)=O,3.823964095148404,2.5045040975906887,0.0,H9C8N3O4
COCCOCCOc1cnc(cn1)C(=O)O,5.631741344952024,1.1445851260483324,0.0,H14C10N2O5
Cc1cc(cc2c1ONO2)N(C)C,3.5252442361867,-0.3629909668437903,0.0,H12C9(NO)2
C(#N)c1cnc(cn1)N,5.143946651963779,1.0746968635536178,0.0,H4C5N4
CN(C)c1cnc(cn1)OCCOC,3.868675256029383,0.4886361408913218,0.0,H15C9N3O2
C=Cc1c(nccn1)OCCOC,4.825573662170063,1.0211895248809015,0.0,H12C9(NO)2
C=Cc1cnc(C#N)cn1,5.619436066011621,1.7470780659929006,0.0,H5C7N3
CN(C)N1Oc2ccc(cc2O1)C(F)(F)F,4.520038127071166,0.2801532199970098,0.0,H9C9N2O2F3
CCc1c[nH]c(=O)cn1,4.862256245738172,1.0153958729511945,0.0,H8C6N2O
CC(=O)c1cnc(cn1)C(=O)O,5.779134164856805,2.142623775814718,0.0,H6C7N2O3
CN(C)c1cnc(cn1)Cl,4.332216284752212,0.772614798651921,0.0,H8C6N3Cl
CN[N]Oc1c(cccc1[O])N(=O)=O,3.884173262971308,2.872004813690728,0.0,H7C7N3O4
COCCOc1cnc(cn1)N,4.192521739496078,0.5514090972679697,0.0,H11C7N3O2
COCCOc1cnc(C#N)cn1,5.702381384516775,1.170317609293852,0.0,H9C8N3O2
C1CCc2c(C1)cc(c(c2N)O)O,3.72251767784619,-0.4140969580352247,0.0,H13C10NO2
C#Cc1c2CCCCc2cc(c1O)O,4.310069464614207,0.2754281237335818,0.0,H6C6O
CN(C)c1cnc(cn1)OCCOCCOC,3.905235021020053,0.4713928093966388,0.0,H19C11(NO)3
CN[N]OC1=C[C](C=CC1=O)N(=O)=O,4.206891113478923,2.907704815953912,0.0,H7C7N3O4
COCCOc1cnc(cn1)C(=O)O,5.652083130598475,1.1581420932794573,0.0,H5C4NO2
CN(C)c1cc2c(cc1C(F)(F)F)ONO2,4.057223209628864,0.3467686196941941,0.0,H9C9N2O2F3
c1c(C(Br)(Br)Br)nc(cn1)C(F)(F)F,6.193840961111709,2.963386692537461,0.0,H2C6Br3N2F3
c1c(Cl)ncc(N)n1,4.7362223594042,0.8506147637905088,0.0,H4C4N3Cl
CN(C)c1ccc2c(c1N(=O)=O)ONO2,3.974471851147973,1.9217965358016955,0.0,H9C8N3O4
C=Cc1c[nH]c(=O)cn1,4.593111190884519,1.1284271804666788,0.0,H6C6N2O
CN(C)c1cnc(C#N)cn1,4.697593982294711,1.0112366319750437,0.0,H8C7N4
C#Cc1cnc(cn1)C(=O)O,5.950354151398278,1.847809855214655,0.0,H4C7(NO)2
c1c[nH]c(=O)c(n1)N(=O)=O,5.602716167253311,2.497147080908326,0.0,H3C4(NO)3
C=Cc1cnc(cn1)C(=O)O,5.597504852546626,1.728519689951645,0.0,H6C7(NO)2
CN(C)c1ccc(c2c1ONO2)C(F)(F)F,4.159289241031365,0.2431595477224619,0.0,H9C9N2O2F3
C=Cc1cnc(cn1)N(C)C,4.016631542058894,0.729906240519631,0.0,H11C8N3
CN(C)c1cnc(cn1)OC,3.822387375053586,0.4938641171316704,0.0,H11C7N3O
CCc1cnc(cn1)N(C)C,4.111537518215846,0.4515382054811199,0.0,H13C8N3
CCc1cnc(cn1)N,4.511556210825438,0.5093110319754488,0.0,H3C2N
C#Cc1cnc(cn1)N(C)C,4.270338346171775,0.7311885171198811,0.0,H9C8N3
CNc1cnc(cn1)OC,3.942946192175077,0.4978936523253652,0.0,H9C6N3O
C#Cc1c[nH]c(=O)cn1,4.941577165740091,1.2373064580220672,0.0,H4C6N2O
COc1c[nH]c(=O)cn1,4.397254180666641,1.150946045535966,0.0,H6C5(NO)2
C1CCc2c(C1)c(C#N)c(c(c2O)O)O,4.599460540089785,0.2795946764104884,0.0,H11C11NO3
CN(C)c1cnc(cn1)F,4.297136530610805,0.7646790502545628,0.0,H8C6N3F
C1CCc2c(C1)cc(c(c2F)O)O,4.365958066043822,-0.355674527780502,0.0,H11C10O2F
CCc1cnc(C#N)cn1,5.930548106194328,1.399407112537665,0.0,H7C7N3
CNc1cnc(cn1)F,4.473328388008303,0.7569727999503812,0.0,H6C5N3F
Cc1c(C#N)nccn1,5.973979159221562,1.4499848654573726,0.0,H5(C2N)3
CCc1cnc(cn1)NC,4.27154110838419,0.4316177364104079,0.0,H11C7N3
COc1cnc(cn1)C(=O)O,5.680266271073924,1.155202325025675,0.0,H6C6N2O3
c1c(=O)[nH]cc(n1)O,4.559738270792513,1.216788886833092,0.0,H2C2NO
C1CCc2c(C1)cc(c(c2N(=O)=O)O)O,4.609902573947329,1.7026487034869209,0.0,H11C10NO4
C(#N)c1cnc(cn1)O,5.923868625760951,1.2877603392822494,0.0,H3C5N3O
C#Cc1cnc(cn1)N,4.612051108624291,0.7965215259297111,0.0,H5(C2N)3
COc1cnc(C#N)cn1,5.721646538158529,1.169019346005007,0.0,H5C6N3O
c1c(N)ncc(=O)[nH]1,3.970031173713869,1.053698254961637,0.0,H5C4N3O
C#Cc1cnc(cn1)NC,4.41869884914704,0.6917844468567638,0.0,H7C7N3
C#Cc1cnc(C#N)cn1,6.082943126764439,1.870839173192144,0.0,H3C7N3
CCc1cnc(cn1)C(=O)O,5.6881254738469575,1.402075264917221,0.0,H8C7(NO)2
CN(C)N1Oc2cccc(c2O1)C(Cl)(Cl)Cl,4.507504990878806,2.687901295417396,0.0,H9C9N2Cl3O2
Cc1cnc(cn1)N,4.515565250405052,0.5282748794066721,0.0,H7C5N3
C1CCc2c(C1)c(c(c(c2N(=O)=O)O)O)C(=O)O,4.802683911378699,2.251245892189764,0.0,H11C11NO6
c1ccc(cc1)c1cnc(C#N)cn1,5.347257505132438,1.6371377077353828,0.0,H7C11N3
c1c[nH]c(=O)c(C(F)(F)F)n1,5.5042782323886055,1.5834319627007063,0.0,H3C5N2OF3
Cc1c[nH]c(=O)cn1,4.871118313175975,1.033107604880206,0.0,H6C5N2O
CN(C)c1cccc2c1ON(C(Cl)(Cl)Cl)O2,3.972910823854909,2.266757004131796,0.0,H9C9N2Cl3O2
C1CCc2c(C1)c(C#N)c(c(c2F)O)O,4.772189185614115,0.5034145427867771,0.0,H10C11NO2F
c1cnc(c(N)n1)N(=O)=O,5.422013481474641,2.247666906761515,0.0,H2C2N2O
c1c(C(Br)(Br)Br)ncc(C(F)(F)F)n1,6.079231915756827,2.9952509318478406,0.0,H2C6Br3N2F3
CNc1cnc(C#N)cn1,4.899799457347035,0.9555855396698464,0.0,H3C3N2
CC(=O)c1c[nH]c(=O)cn1,5.370479697399423,1.2061597692714714,0.0,H3C3NO
c1c(ncc(=O)[nH]1)N(=O)=O,5.829043701430782,2.093711408569652,0.0,H3C4(NO)3
C1CCc2c(C1)cc(c(c2C#N)O)O,4.544879029320873,0.4883312781545101,0.0,H11C11NO2
C[C]([N]N1Oc2cccc(c2O1)C(Br)(Br)Br)O,4.574699636601144,3.383555915520992,0.0,H7C9Br3N2O3
COc1cnc(cn1)N,4.154951746444203,0.5527547355719435,0.0,H7C5N3O
c1ccc(cc1)c1c[nH]c(=O)cn1,4.521773949406997,1.0983675919429516,0.0,H8C10N2O
CNc1cnc(cn1)Cl,4.500064710083825,0.7582021939502739,0.0,H6C5N3Cl
c1c(N)ncc(n1)N(=O)=O,5.39441798443986,2.0470413137732977,0.0,H2C2N2O
CN[N]Oc1c(cccc1[O])C(F)(F)F,3.716168633412599,2.86382102264688,0.0,H7C8N2O2F3
Cc1cnc(cn1)C(=O)O,5.722278810988064,1.4061440062720068,0.0,H3C3NO
CCc1c(nccn1)OCCOC,5.140826363394444,0.4915784806158627,0.0,H14C9(NO)2
CN(C)c1cccc2c1ON(N(=O)=O)O2,4.174729916304932,3.214554933010368,0.0,H9C8N3O4
c1ccc(cc1)c1cnc(cn1)N,4.275135247833168,0.6475199363572757,0.0,H9C10N3
CNc1cnc(cn1)C(=O)O,4.826722589381097,0.9585393843677594,0.0,H7C6N3O2
COCCOCCOCCOc1cncc(n1)N(=O)=O,5.7576535555796,2.396124595199217,0.0,H17C11(NO2)3
C#Cc1c2CCCCc2c(c(c1O)O)OCCOC,4.408048416904057,0.219663666082488,0.0,H18C15O4
CNc1c[nH]c(=O)cn1,3.746270459443258,1.0441409448281775,0.0,H7C5N3O
Cc1cnc(C#N)cn1,5.965683611023996,1.4078931186500996,0.0,H5(C2N)3
C1CCc2c(C1)c(c(c(c2N(=O)=O)O)O)F,4.836542029495467,1.75635255460802,0.0,H10C10NO4F
C1CCc2c(C1)c(c(c(c2O)O)O)Cl,4.401539698790293,0.0132124151292374,0.0,H11C10ClO3
c1c(C(=O)O)ncc(C(Br)(Br)Br)n1,6.003635069582378,3.00591291533201,0.0,H3C6Br3(NO)2
c1c(C(Cl)(Cl)Cl)ncc(=O)[nH]1,5.434756183416175,1.3407739382761066,0.0,H3C5N2Cl3O
C1Cc2cc(c(cc2C(C1)(C(F)(F)F)C(F)(F)F)O)O,4.550129381475562,-0.2522528170724398,0.0,H5C6OF3
CCc1c2CCCCc2c(c(c1O)O)N(C)C,4.019510343203001,-0.5907647153275319,0.0,H21C14NO2
CN(C)c1ccc(c2ccccc2)c2c1ONO2,3.788411420760531,0.2435493127028167,0.0,H7C7NO
COCCOCCOc1cncc(C(F)(F)F)n1,5.667417564470815,1.1327494366756583,0.0,H13C10N2(OF)3
c1c(C(=O)O)ncc(N)n1,5.102040078625214,1.0618793602403458,0.0,H5C5N3O2
CC1(C)CCCc2cc(c(cc12)O)O,4.144793230714276,-0.4838055083877406,0.0,H8C6O
CN(C)C1(CCc2cc(c(cc2C1)O)O)N(C)C,3.574742246839014,-0.4544917730148881,0.0,H11C7NO
CC(C)(C)c1cnc(cn1)N,4.478630267645348,0.4169975496675762,0.0,H13C8N3
CC(C)(C)c1cnc(cn1)N(C)C,4.082992792873119,0.430221757043546,0.0,H17C10N3
C1CCc2c(C1)c(c(c(c2O)O)O)F,4.340977104076591,-0.2867823543150734,0.0,H11C10O3F
COC1(CCCc2cc(c(cc12)O)O)OC,4.340252015941223,-0.4588087910364264,0.0,H4C3O
C(#N)c1cnc(cn1)C(Br)(Br)Br,6.124054164416156,3.0532244722067845,0.0,H2C6(BrN)3
C1CCc2c(C1)cc(c(c2C(F)(F)F)O)O,4.403040937229525,0.1618671058182372,0.0,H11C11O2F3
COCCOCCOc1c(nccn1)N(=O)=O,5.426349087590642,2.2352305886794057,0.0,H13C9N3O5
C=CC1(C=C)CCc2cc(c(cc2C1)O)O,4.199929826505104,-0.4183225866203428,0.0,H8C7O
CNC1(CCc2cc(c(cc2C1)O)O)NC,4.005574813928979,-0.3821859232833957,0.0,H9C6NO
c1c(C(F)(F)F)ncc(N)n1,5.138260689088929,0.9183744185080288,0.0,H4C5(NF)3
COCCOCCOCCOc1cncc(C#N)n1,5.6916274809897,1.4477817665152544,0.0,H17C12N3O4
CN(C)c1cncc(n1)OCCOCCOC,4.178884240181651,0.3047181852067298,0.0,H19C11(NO)3
CC(C)(C)c1c[nH]c(=O)cn1,4.805875752284555,1.039473191117941,0.0,H12C8N2O
c1ccc(cc1)c1cnc(cn1)C(=O)O,5.304141418438666,1.631435790820979,0.0,H8C11(NO)2
C(#N)c1cnc(cn1)C(Cl)(Cl)Cl,6.452403718301502,2.9129929429560435,0.0,H2C6(NCl)3
COCCOCCOCCOc1cncc(N)n1,4.393747376159444,0.3598606967512752,0.0,H19C11N3O4
CNc1cncc(n1)OCCOCCOCCOC,4.193366715555021,0.2833791676472175,0.0,H21C12N3O4
CNc1cncc(n1)OCCOCCOC,4.298521067588444,0.2733055813710963,0.0,H17C10(NO)3
CCc1cncc(n1)OCCOC,5.168917401498765,0.5394422653531366,0.0,H14C9(NO)2
C1CCc2c(C1)c(C#N)c(c(c2Cl)O)O,4.738713069074583,0.7117799077801465,0.0,H10C11NClO2
c1c(C(Br)(Br)Br)ncc(=O)[nH]1,5.33755617061397,3.285467113624327,0.0,H3C5Br3N2O
C=Cc1cnc(cn1)N,4.308416598896292,0.7630359697537643,0.0,H7(C2N)3
COCCOCCOCCOc1c(C(Cl)(Cl)Cl)nccn1,5.604824007308343,2.910211237469048,0.0,H17C12N2Cl3O4
COCCOCCOc1cncc(N)n1,4.3988616006477965,0.3585610048663512,0.0,H5C3NO
COCCOC1(CCc2cc(c(cc2C1)O)O)OCCOC,4.249430253528407,-0.3877239650741102,0.0,H12C8O3
CN(C)c1cncc(n1)OCCOC,4.105056580201199,0.3253910354374967,0.0,H15C9N3O2
CNc1cncc(n1)OCCOC,4.234857479901256,0.2943390640735743,0.0,H13C8N3O2
COCCOCCOc1cncc(C#N)n1,5.669987418446544,1.4392991400542088,0.0,H13C10(NO)3
COCCOCCOCCOc1cncc(C(=O)O)n1,5.614686506714497,1.470741850569175,0.0,H9C6NO3
COCCOCCOc1cncc(=O)[nH]1,4.713239308946504,0.8842707992858778,0.0,H14C9(NO2)2
C1CC(Cc2cc(c(cc12)O)O)(O)O,4.100169195249327,-0.3716110924273379,0.0,H6C5O2
C1CC(Cc2cc(c(cc12)O)O)(C(F)(F)F)C(F)(F)F,4.337003028407343,-0.3540650723865837,0.0,H5C6OF3
C1CC(Cc2cc(c(cc12)O)O)(Cl)Cl,4.331228642136557,2.0916631396772574,0.0,H5C5ClO
CC(C)(C)c1cncc(NC)n1,4.294898152107271,0.3893780440299452,0.0,H5C3N
CNC1(CCCc2cc(c(cc12)O)O)NC,4.059383556768443,-0.4808307925617554,0.0,H9C6NO
CC(C)(C)C1(CCCc2cc(c(cc12)O)O)C(C)(C)C,4.171213957886357,-0.3590324669698019,0.0,H14C9O
C1CCc2c(C1)c(c(c(c2O)O)O)O,3.9301949812375834,-0.3524678158559253,0.0,H6C5O2
COCCOC1(CCCc2cc(c(cc12)O)O)OCCOC,4.389002758447168,-0.390652448763285,0.0,H12C8O3
c1c(C(F)(F)F)ncc(=O)[nH]1,5.585829304892831,1.3732406811919646,0.0,H3C5N2OF3
CCC1(CC)CCCc2cc(c(cc12)O)O,4.127756907107687,-0.4728448201189166,0.0,H10C7O
C#Cc1c2CCCCc2c(c(c1O)O)N(=O)=O,4.728020363947143,2.2286079936398893,0.0,H11C12NO4
C1Cc2cc(c(cc2C(C1)(F)F)O)O,4.533491424362728,-0.1617518415027006,0.0,H5C5OF
CC(C)(C)C1(CCc2cc(c(cc2C1)O)O)C(C)(C)C,4.097747286844969,-0.5155742548180569,0.0,H14C9O
CC(C)(C)c1c2CCCCc2c(c(c1O)O)OC,4.128768044034223,-0.4237764010271347,0.0,H22(C5O)3
C1CCc2c(C1)c(C#N)c(c(c2C#N)O)O,4.907703063655935,1.346639428263734,0.0,H5C6NO
C1CC(Cc2cc(c(cc12)O)O)(C#N)C#N,4.416218185918842,0.6396480177078048,0.0,H5C6NO
CN(C)c1cncc(c2ccccc2)n1,4.199492947738326,0.7436263535979379,0.0,H13(C4N)3
C#CC1(C#C)CCc2cc(c(cc2C1)O)O,4.25724564869015,-0.4818833724260911,0.0,H6C7O
COc1c2CCCCc2c(c(c1O)O)O,4.049855732891592,-0.4349946015048771,0.0,H14C11O4
CN(C)c1cnc(cn1)c1ccccc1,3.998225220505992,0.6164989179429541,0.0,H13(C4N)3
CC(=O)c1c2CCCCc2c(c(c1O)O)OCCOC,3.977364437579672,0.7627468297519955,0.0,H4C3O
CC(C)(C)c1cnc(cn1)NC,4.237528005112472,0.4164758775074006,0.0,H5C3N
Cc1c2CCCCc2c(c(c1O)O)Cl,4.31121227198455,-0.3195698949552024,0.0,H13C11ClO2
c1ccc(cc1)C1(CCc2cc(c(cc2C1)O)O)c1ccccc1,4.186906324853771,-0.4568256634724092,0.0,H10C11O
COCCOCCOCCOc1c(Cl)nccn1,5.39722778568248,0.8355297276953935,0.0,H17C11N2ClO4
CC(C)(C)c1cncc(c2ccccc2)n1,4.993923089894087,0.8018733248478385,0.0,H8C7N
CN(C)c1c(c2ccccc2)nccn1,4.073774473997764,0.7494814814832353,0.0,H13(C4N)3
COCCOCCOCCOc1cnc(cn1)C(F)(F)F,5.697477068640728,0.9790575269958935,0.0,H17C12N2O4F3
C1CC(Cc2cc(c(cc12)O)O)(F)F,4.327317002983909,-0.3601019886431458,0.0,H5C5OF
C1CC(Cc2cc(c(cc12)O)O)(N(=O)=O)N(=O)=O,4.436611390201142,2.4019795380459983,0.0,H5C5NO3
COCCOCCOc1cnc(cn1)C(F)(F)F,5.681388539296313,0.9834661439759658,0.0,H13C10N2(OF)3
CC(C)(C)c1ccc(c(c1C(C)(C)C)OCCOC)OCOC,4.13286105249208,-0.2214272879522467,0.0,H32C19O4
C#Cc1c(C(=O)C)nccn1,5.515650615293998,1.64003831063892,0.0,H6C8N2O
COCCOCCOCCOc1cncc(n1)OCCOC,4.830154793880501,0.4504025574220578,0.0,H12C7NO3
CC(=O)c1c(nccn1)OCCOCCOC,5.411600435907166,1.4343290324919509,0.0,H16C11(NO2)2
Cc1c2CCCCc2c(c(c1O)O)N(=O)=O,4.5588377399741145,2.0328349523129874,0.0,H13C11NO4
CC(C)(C)c1ccc(c(c1C(C)(C)C)OCOC)OCOC,4.211173088676878,-0.1255650575134494,0.0,H15C9O2
COCCOCCOc1cnc(cn1)OCCOCCOC,4.677249494552234,0.6279479743658158,0.0,H12C7NO3
CC(C)(C)c1ccc(c(c1C(C)(C)C)OCCOC)OCCOC,4.291678822258836,-0.1526073117332997,0.0,H17(C5O)2
C1CCc2c(C1)c(C#N)c(c(c2N)O)O,4.127939890052948,0.1513740723872616,0.0,H12C11(NO)2
CC(=O)c1c(Cl)nccn1,5.716608410298795,1.7196740853993109,0.0,H5C6N2ClO
CC(C)(C)c1cc(cc(c1C(C)(C)C)OCOC)OCOC,4.066907112560875,-0.3452614577166968,0.0,H15C9O2
CC(=O)c1c(F)nccn1,5.89429151684053,1.7351592785013057,0.0,H5C6N2OF
C#Cc1c2CCCCc2c(c(c1O)O)O,4.325558962552895,0.2541974510182627,0.0,H4C4O
CC(C)(C)c1cc(cc(c1C(C)(C)C)OC)OC,3.8737029265517777,-0.3531605714255419,0.0,H13C8O
COCCOc1c2CCCCc2c(c(c1O)O)OC,4.026953644462628,-0.4586678659965399,0.0,H20C14O5
C1CCc2c(C1)cc(c(c2O)O)O,4.195849669974995,-0.3815055243961978,0.0,H12C10O3
CC(C)(C)c1cc(cc(c1C(C)(C)C)OCCOC)OCCOC,3.971888062218204,-0.3760332253026717,0.0,H17(C5O)2
C=Cc1c(C(=O)C)nccn1,5.425140262681088,1.5070454176544446,0.0,H8C8N2O
C#Cc1c2CCCCc2c(c2ccccc2)c(c1O)O,4.336559618908359,0.4511569440597669,0.0,H8C9O
CNc1c2CCCCc2cc(c1O)O,3.5319222254380294,-0.4034118802614101,0.0,H15C11NO2
CC(=O)c1c(nccn1)OCCOCCOCCOC,5.47712694214133,1.3923326915188228,0.0,H20C13N2O5
CC(C)(C)c1ccc(c(c1C(C)(C)C)OC)OCCOC,4.307674011118797,-0.1914066117118635,0.0,H10C6O
C1CC(Cc2cc(c(cc12)O)O)(N)N,4.296282463231909,-0.5091900042956694,0.0,H7C5NO
CC(=O)c1cnc(cn1)N,5.004013917303018,1.087145160086584,0.0,H7C6N3O
CC(C)(C)c1ccc(c(c1C(C)(C)C)OCCOC)OC,4.034152135785552,-0.271628568660526,0.0,H10C6O
CC(=O)c1c(nccn1)O,5.626308798971513,1.5255754312689531,0.0,H3C3NO
CC(=O)c1cnc(cn1)OCCOC,5.491809938206279,1.1853083797082946,0.0,H12C9N2O3
CC(=O)c1cnc(cn1)Cl,5.839675874836393,1.6692452821531334,0.0,H5C6N2ClO
CC(C)(C)c1cc(c(cc1C(C)(C)C)OC)OC,4.031363796167716,-0.8629684821084083,0.0,H13C8O
C#Cc1cnc(cn1)C(=O)C,5.674632279220168,1.852506052984245,0.0,H6C8N2O
CC(=O)c1cnc(cn1)C(=O)C,5.581124075660773,2.1361633143656946,0.0,H4C4NO
CC(=O)c1c(C(F)(F)F)nccn1,5.917348979551752,1.774607482902502,0.0,H5C7N2OF3
CC(=O)c1cncc(n1)N(C)C,4.4512249101586345,1.3423652382331055,0.0,H11C8N3O
CC(C)(C)c1ccc(c(c1C(C)(C)C)OC)OCOC,4.098043586158019,-0.1840908529324223,0.0,H28C17O3
CC(=O)c1cncc(n1)OCCOCCOCCOC,5.50278735875836,1.5050804645776226,0.0,H20C13N2O5
CC1(C)CCc2cc(c(cc2C1)O)O,4.129222033317637,-0.57263839347288,0.0,H8C6O
CC(C)(C)c1cc(c(cc1C(C)(C)C)OCOC)OCCOC,4.1074073145042345,-0.7869116437927004,0.0,H32C19O4
CC(=O)c1cnc(cn1)OCCOCCOC,5.508231524001166,1.1772338342103468,0.0,H16C11(NO2)2
CC(C)(C)c1cc(cc(c1C(C)(C)C)OCOC)OCCOC,3.911800085750292,-0.6911895302058837,0.0,H32C19O4
C1CCc2c(C1)c(c(c(c2Cl)O)O)C(=O)O,4.532314110235893,0.8488620241310856,0.0,H11C11ClO4
CCc1cnc(cn1)C(=O)C,5.433240101163028,1.4293242086492683,0.0,H10C8N2O
CC(C)(C)c1ccc(c(c1C(C)(C)C)OCOC)OCCOC,4.283228174617397,-0.124072575692844,0.0,H32C19O4
Cc1c(C(=O)C)nccn1,5.457122795345276,1.436860684408748,0.0,H8C7N2O
CC(=O)c1cnc(cn1)N(C)C,4.561742021858299,1.0497219125823904,0.0,H11C8N3O
CC(=O)c1cnc(cn1)F,5.925812277764271,1.5453774818412058,0.0,H5C6N2OF
CC(=O)c1cnc(cn1)OC,5.537932959013778,1.188850915484727,0.0,H8C7(NO)2
CC(C)(C)c1cc(c(cc1C(C)(C)C)OCCOC)OCCOC,4.4058547793662,-0.7350548578746383,0.0,H17(C5O)2
CC(=O)c1c(C(C)(C)C)nccn1,5.3348396091583705,1.3569847446920904,0.0,H14C10N2O
C=Cc1c2CCCCc2c(c(c1O)O)OCCOCCOC,4.151233169342595,0.2643719126150246,0.0,H24C17O5
CC(C)(C)c1c2CCCCc2c(c(c1O)O)C(Cl)(Cl)Cl,4.231515315151773,3.4256321056105663,0.0,H19C15Cl3O2
CC(=O)c1c(nccn1)OCCOC,5.422010569856502,1.4476104490837316,0.0,H12C9N2O3
CC(=O)c1cnc(cn1)OCCOCCOCCOC,5.529195911554416,1.1843895818907186,0.0,H20C13N2O5
CCc1c2CCCCc2c(C#N)c(c1O)O,4.489693447599711,0.4501069030171494,0.0,H15C13NO2
CC(=O)c1c(C(Br)(Br)Br)nccn1,5.687654474715236,2.92142211808241,0.0,H5C7Br3N2O
CC(=O)c1cnc(cn1)c1ccccc1,5.26410281951903,1.6427478352103209,0.0,H10C12N2O
C1CCc2c(C1)c(C#N)c(c(c2N(=O)=O)O)O,4.958110647463036,2.4208612560774783,0.0,H10C11(NO2)2
CC(=O)c1cnc(cn1)C(Cl)(Cl)Cl,5.842116466572042,2.87069967953139,0.0,H5C7N2Cl3O
CC(=O)c1cncc(n1)OCCOC,5.458163203560252,1.516051485015487,0.0,H12C9N2O3
Cc1c2CCCCc2cc(c1O)O,4.1069215532130325,-0.4322500477250286,0.0,H14C11O2
CC(=O)c1cnc(cn1)C(C)(C)C,5.37780086308303,1.372817944181952,0.0,H14C10N2O
CC(C)(C)c1cc(cc(c1C(C)(C)C)OC)OCOCCOC,4.007844314086105,-0.3285557877956306,0.0,H32C19O4
Cc1cnc(cn1)C(=O)C,5.457412106781339,1.4318397269340497,0.0,H8C7N2O
C=Cc1c2CCCCc2c(c(c1O)O)C(=O)O,4.371215680924797,0.8442438958205458,0.0,H14C13O4
CC(C)(C)c1cc(cc(c1C(C)(C)C)OCCOC)OC,3.95777821409647,-0.3998455345230467,0.0,H10C6O
CC(=O)c1cncc(NC)n1,4.661314878241319,1.355352834466976,0.0,H9C7N3O
C=Cc1cnc(cn1)C(=O)C,5.458100884048326,1.7301394883939794,0.0,H8C8N2O
c1ccc(cc1)c1c2CCCCc2c(c(c1O)O)O,4.238878002682759,-0.1173790950000692,0.0,H16C16O3
CC(=O)c1cncc(C(C)(C)C)n1,5.379357114779486,1.428727286128924,0.0,H14C10N2O
CCc1cncc(C(=O)C)n1,5.429071921245486,1.4724109505947127,0.0,H10C8N2O
C=Cc1cncc(C(=O)C)n1,5.432719895694026,1.5439176482410404,0.0,H8C8N2O
COCCOc1c2CCCCc2c(c(c1O)O)C(=O)O,4.437915784213692,0.4375345116874087,0.0,H9C7O3
C#Cc1cncc(C(=O)C)n1,5.659471475749887,1.6598221595191718,0.0,H6C8N2O
CN(C)c1c2CCCCc2c(c(c1O)O)O,3.770217271814181,-0.4627503953619452,0.0,H17C12NO3
CN(C)c1c2CCCCc2c(c(c1O)O)C(Cl)(Cl)Cl,4.3215720866443,3.306371494634368,0.0,H16C13NCl3O2
CC(=O)c1cncc(n1)OC,5.462979457955589,1.520109064260032,0.0,H8C7(NO)2
CCc1c2CCCCc2c(CC)c(c1O)O,4.046754105891159,-0.3529079817584715,0.0,H10C7O
CC(C)(C)c1c2CCCCc2c(c(c1O)O)C(=O)O,4.212945102155208,0.7254216629604344,0.0,H20C15O4
CC(=O)c1cncc(Cl)n1,5.825103631826641,1.7865752046287526,0.0,H5C6N2ClO
COCCOCCOc1c2CCCCc2c(c(c1O)O)OC,4.089734981947549,-0.4485633730349945,0.0,H12C8O3
CC(=O)c1cncc(N)n1,4.929463950183708,1.4306828784898244,0.0,H7C6N3O
CNc1c2CCCCc2c(c(c1O)O)NC,3.164936536473397,-0.702823311107204,0.0,H9C6NO
c1ccc(cc1)c1cncc(c2ccccc2)n1,4.88569659166169,0.9639783930557316,0.0,H6C8N
COCCOc1cncc(n1)N(=O)=O,5.839059936993726,2.4048079464279,0.0,H9C7N3O4
CC(=O)c1cncc(C(=O)C)n1,5.597640563877212,1.6475883240615077,0.0,H4C4NO