smiles,IE,EA,charge,formula_pretty
CCc1cc(cn1C)C(Cl)(Cl)Cl,4.393045425860327,2.671026607431122,0.0,H10C8NCl3
CCC1=COC=C(C1)C#N,4.756858373582508,0.4196619087793807,0.0,H9C8NO
C#CC1=C(c2ccccc2)OC=CC1,4.230858933032868,0.7316736416683853,0.0,H10C13O
CNc1c[nH]cc1N,3.20378386726552,-0.7144970138309872,0.0,H9C5N3
CCC1=CCC=C(C(Cl)(Cl)Cl)O1,4.58164208511298,2.470625355964876,0.0,H9C8Cl3O
CCC1=CCC=C(C#N)O1,4.674877323118926,0.5337739245675039,0.0,H9C8NO
CNc1ccc(C#N)[nH]1,3.746976875132168,-0.375821583322613,0.0,H7(C2N)3
CCC1=COC=C[C@H]1C(Cl)(Cl)Cl,4.865400232696265,2.361013237752195,0.0,H9C8Cl3O
Cc1ccc(F)[nH]1,4.115760784857775,-0.7955022368609206,0.0,H6C5NF
CCC1=COC=C[C@H]1[C]([NH])O,4.765135355451639,-0.072938483308826,0.0,H11C8NO2
CN(C)[C@@H]1C=CSC=C1c1ccccc1,3.9811938003855176,0.1985180996940472,0.0,H15C13SN
CN(C)[C@@H]1C=COC(=C1)C(=N)O,4.212428548456591,0.5872412026397797,0.0,H6C4NO
COC1=C(N)OC=CC1,3.212619229450502,-0.6998103170230023,0.0,H9C6NO2
CCc1cc[nH]c1O,3.688655314753851,-0.3556025046877038,0.0,H9C6NO
CC1=COC(=CC1)c1ccccc1,4.116289499322738,0.1790414210769086,0.0,H12C12O
Cc1ccn(C)c1O,3.577685680458308,-0.4351888009899993,0.0,H9C6NO
CN(C)C1=COC=C[C@H]1C(=O)O,3.655046967208909,0.0004247491011484,0.0,H11C8NO3
c1ccc(cc1)C1=CSC=C(C1)c1ccccc1,3.864209179487807,0.5393761906721921,0.0,H14C17S
Cc1ccc(n1C)O,3.514214104457642,-0.4440777124586019,0.0,H9C6NO
C1=COC=C(C#N)[C@@H]1C#N,5.554770514350457,0.9397313928599034,0.0,H4C7N2O
CN(C)c1cc(c[nH]1)N,2.782163365876477,-0.7660825621209368,0.0,H11(C2N)3
c1c[nH]c(c1C(Cl)(Cl)Cl)C(=N)O,5.059654184924147,2.719898606579227,0.0,H5C6N2Cl3O
c1ccc(cc1)C1=CCC=C(C(Cl)(Cl)Cl)O1,4.431573529023444,2.4057192360429327,0.0,H9C12Cl3O
CCC1=C(c2ccccc2)SC=CC1,3.979461659747904,0.0673727698682342,0.0,H14C13S
c1ccc(cc1)[C@@H]1C=CSC=C1c1ccccc1,4.0437364477707884,0.3737685411666462,0.0,H14C17S
CC[C@@H]1C=CSC=C1c1ccccc1,3.952870477752731,0.2739660533530696,0.0,H14C13S
c1ccc(cc1)C1=CSC(=CC1)c1ccccc1,3.94192214344148,0.4139961449123803,0.0,H14C17S
C1C=C(O)SC=C1N(=O)=O,4.644818795839091,1.998322484765231,0.0,H5C5SNO3
C1C(=CSC=C1N(=O)=O)F,4.8938878740023934,2.0644568470685045,0.0,H4C5SNO2F
c1ccc(cc1)C1=CSC=C(C1)N,3.374976841064927,0.228237132299546,0.0,H11C11SN
C1=CSC(=C(C1)F)N(=O)=O,4.743682482739677,2.140068036381854,0.0,H4C5SNO2F
C1C=C(O)SC=C1F,4.216016668744123,-0.3476368754731083,0.0,H5C5SOF
CCC1=CSC(=CC1)c1ccccc1,3.950438999099424,0.1940231954118645,0.0,H14C13S
CN(C)C1=CSC=C[C@H]1c1ccccc1,3.289156751421251,-0.3262098426952433,0.0,H15C13SN
C1C=C(F)SC(=C1)N(=O)=O,4.87121503876333,2.246425196893688,0.0,H4C5SNO2F
C1C=C(N(=O)=O)SC=C1F,4.715666286827036,2.2322877428210632,0.0,H4C5SNO2F
C1C=C(N(=O)=O)SC=C1N(=O)=O,5.3762467311549695,2.354182987195236,0.0,H4C5S(NO2)2
CCC1=C[C@@H](C=CS1)c1ccccc1,4.153860061096202,-0.2196257909403356,0.0,H14C13S
C1C=CSC(=C1)F,4.338478097660845,0.0411836034123553,0.0,H5C5SF
CN(C)[C@@H]1C=CSC(=C1)c1ccccc1,4.024370963039109,0.3023515213550127,0.0,H15C13SN
C1C(=CSC=C1O)F,3.9344685834963458,-0.4614110864225949,0.0,H5C5SOF
C=CC1=COC(=CO1)C,3.877641964468785,0.1018542957532191,0.0,H8C7O2
C=Cc1ccc(n1C)N(=O)=O,4.732668136340726,1.8021243662456985,0.0,H8C7(NO)2
Cn1cc(c(c1)O)N(=O)=O,4.677726711479044,1.4592794387968753,0.0,H6C5N2O3
Cn1cc(cc1C#N)C#N,5.435219868115018,0.3381080389459385,0.0,H5C7N3
CN(C)c1cn(C)cc1OC,3.076314572400952,-0.9756461700057116,0.0,H14C8N2O
C1C=C(F)SC=C1O,4.047055768570862,-0.4816413244465365,0.0,H5C5SOF
CCC1=C(CC=CS1)c1ccccc1,3.948755229420931,0.0035517398333468,0.0,H14C13S
C1=CSC(=C(C1)F)N,3.767217518785037,-0.4096105246557271,0.0,H6C5SNF
C(#N)C1=COC=C(F)O1,4.788661375095762,0.9438104791293882,0.0,H2C5NO2F
Cn1cc(c(c1)N(=O)=O)N(=O)=O,5.830532386900449,2.201866863671603,0.0,H5C5N3O4
c1ccc(cc1)c1c[nH]cc1F,4.273190618937951,-0.2401833547031855,0.0,H8C10NF
Cc1cc(C#N)[nH]c1,4.789519120061959,-0.0575679426568966,0.0,H3C3N
Cc1ccc([nH]1)N(C)C,2.8510934801721306,-0.7739728647851734,0.0,H12C7N2
CN(C)c1cc(C(=O)N)[nH]c1,3.405670000399914,0.1156236501443346,0.0,H11C7N3O
C#Cc1ccc(c2ccccc2)[nH]1,3.987830640587709,0.3911654373820057,0.0,H9C12N
CNc1ccc(N(C)C)n1C,2.653796778220203,-0.734902123091524,0.0,H15C8N3
c1c[nH]c(c1O)N,3.074801194832253,-0.6163803474450105,0.0,H6C4N2O
Cc1ccn(C)c1F,4.112180691925095,-0.8470623261786385,0.0,H8C6NF
CCc1cc(c[nH]1)C(=O)O,4.684269013885205,-0.0410616356624813,0.0,H9C7NO2
CCc1cc(C#N)c[nH]1,4.717600847508583,-0.5121385400492726,0.0,H8C7N2
Cn1ccc(c1F)OC,3.823986969042017,-0.7920929769974463,0.0,H8C6NOF
Cn1c(ccc1N(=O)=O)N(=O)=O,5.963764479199744,2.668335238291184,0.0,H5C5N3O4
Cn1cc(cc1F)OC,3.797890770277809,-0.8434066590747533,0.0,H8C6NOF
CCc1c[nH]cc1C#N,4.794484193514654,-0.4695208679426286,0.0,H8C7N2
Cc1c(cc[nH]1)F,4.239928283188055,-0.9286824176382652,0.0,H6C5NF
C=Cc1cn(C)cc1OC,3.986668967561491,-0.6161712714987515,0.0,H11C8NO
C=Cc1ccc(C(=O)N)[nH]1,4.2683313379016905,0.5004524965748716,0.0,H8C7N2O
C=Cc1c(cc[nH]1)[C]([NH])O,4.365238401130773,0.5599592215654412,0.0,H8C7N2O
C#Cc1c[nH]cc1O,4.408588345184034,-0.815986264575622,0.0,H5C6NO
Cc1cc(N)n(C)c1,3.1429116124469147,-0.6444732114308862,0.0,H5C3N
CN(C)c1c[nH]cc1c1ccccc1,3.316837044379645,-0.3742637669751274,0.0,H7C6N
C#Cc1ccc(NC)n1C,3.212951385208362,-0.678201373419506,0.0,H5C4N
CNc1cc(cn1C)N,2.751770489601404,-0.7390545312868197,0.0,H11(C2N)3
CCc1cc(n(C)c1)O,3.609438059241802,-0.4452811440736695,0.0,H11C7NO
CN(C)c1c[nH]cc1[C]([NH])O,3.618927561328383,-0.4105289279144926,0.0,H11C7N3O
CNc1ccc(c2ccccc2)[nH]1,3.052181873499285,-0.2117461877991444,0.0,H12C11N2
Cc1cc(cn1C)C(=O)O,4.623933204287459,0.0413413106831286,0.0,H9C7NO2
c1cc([nH]c1F)O,3.847242990497398,-0.4457772837926312,0.0,H4C4NOF
CNc1cc[nH]c1C#N,3.879484782346117,-0.1372353778609976,0.0,H7(C2N)3
Cn1cc(cc1N)N,2.829150103217762,-0.6539411022353305,0.0,H9C5N3
Cn1ccc(C#N)c1N,3.847829360447213,-0.553066703594959,0.0,H7(C2N)3
C=Cc1cc(c[nH]1)F,4.097844053246808,-0.0288952639442867,0.0,H6C6NF
Cn1ccc(c1)O,3.9123089876044106,-0.523215845433151,0.0,H7C5NO
CCc1cc(C(=O)O)[nH]c1,4.762118883754374,0.3217360894337617,0.0,H9C7NO2
C1=COC(=C[C@@H]1F)O,5.096149023547332,-0.3406217643881972,0.0,H5C5O2F
C=Cc1c[nH]cc1C#N,4.538095767389313,0.1060110872964288,0.0,H6C7N2
COc1c(cc[nH]1)F,3.848579553808668,-0.9415697018233912,0.0,H6C5NOF
Cn1ccc(c1N)F,3.3858683743288567,-0.5915014417736528,0.0,H7C5N2F
CN(C)c1ccc([nH]1)N(=O)=O,4.022071026941921,1.5224501466887888,0.0,H9C6N3O2
CCc1cc(c[nH]1)N,3.269994181977017,-0.9065104650602732,0.0,H5C3N
Cn1ccc(c1F)N,3.4378582674558857,-0.6342311268239427,0.0,H7C5N2F
Cn1cccc1OC,3.690983071771916,-0.9516787853503046,0.0,H9C6NO
CCc1c[nH]cc1[C]([NH])O,4.71078497001472,-0.4424762354414269,0.0,H10C7N2O
c1ccc(cc1)c1cc[nH]c1,4.079864398032077,-0.3001872752141934,0.0,H9C10N
c1c[nH]c(c1C#N)C(=O)O,5.491475292606628,1.0913751914773455,0.0,H2C3NO
Cn1ccc(c1)C(=N)O,4.726898751521366,-0.1438881258331092,0.0,H8C6N2O
c1cc(C(=O)O)[nH]c1C(=O)N,5.279165632072909,0.96844308997388,0.0,H6C6N2O3
CNc1cc(N)n(C)c1,2.6816530310603413,-0.6558998483946197,0.0,H11(C2N)3
CCc1ccc([nH]1)N(=O)=O,5.151532932720874,1.7661813554401309,0.0,H4C3NO
CNc1c(cc[nH]1)C(=O)O,3.6971150727691566,-0.3642984330239414,0.0,H4C3NO
CNc1cn(C)cc1[C]([NH])O,3.762538404323641,-0.3067801771871017,0.0,H11C7N3O
Cn1ccc(C#N)c1F,4.920471161980094,0.4021088110544952,0.0,H5C6N2F
CCC1=COC=C(C1)OC,3.806941314647338,-0.8541220421670004,0.0,H6C4O
c1c(C#N)c[nH]c1N,3.781583902232888,-0.5189834956330741,0.0,H5C5N3
C#CC1=COC=C[C@H]1C#N,4.929088729691648,0.5853659083510139,0.0,H5C8NO
CN(C)c1cc[nH]c1F,3.262324313292629,-0.7369211560730036,0.0,H9C6N2F
Cc1cc(N)[nH]c1,3.188395345330355,-0.5948743200173339,0.0,H8C5N2
c1cc([nH]c1C(=O)N)N(=O)=O,5.704524849712106,2.1094345325633186,0.0,H5C5(NO)3
C1C=C(C(Cl)(Cl)Cl)OC(=C1)N(=O)=O,5.4077469257186745,2.260067430602794,0.0,H4C6N(ClO)3
CCC1=CCC=C(C)O1,4.148518869172767,-0.8037572482575341,0.0,H12C8O
Cn1cccc1O,3.750651848713096,-0.4749397293184301,0.0,H7C5NO
CCc1c[nH]cc1OC,3.81262871428371,-0.9757203804114396,0.0,H11C7NO
CCc1cc(c[nH]1)NC,3.09062130564198,-0.9023059443428793,0.0,H12C7N2
c1c(c(c[nH]1)N(=O)=O)C(=O)O,5.770385783862002,2.285432429938373,0.0,H4C5(NO2)2
CNc1cc(c[nH]1)N,2.789584397337967,-0.6665127996751834,0.0,H9C5N3
Cn1cccc1C(=O)N,4.666392731996529,0.1255555304174778,0.0,H8C6N2O
C#CC1=CCC=C(OC)O1,4.122042266149583,0.4452108240271628,0.0,H4C4O
Cn1ccc(c1N)C(=O)O,3.7733511470283694,-0.4181980918241605,0.0,H4C3NO
CCC1=C(C)CC=CO1,4.079749604088283,-0.8247623658102383,0.0,H12C8O
CNc1ccn(C)c1N,2.694461181819497,-0.556945754391927,0.0,H11(C2N)3
C=C[C@@H]1C=COC(=C1)C(=O)O,4.972547829489121,0.8593373946565408,0.0,H8C8O3
C#CC1=CSC(=CC1)C#C,4.278258981362887,0.5521861645916943,0.0,H6C9S
CCC1=C(C(=N)O)OC=CC1,4.59154951051787,0.4175883333842649,0.0,H11C8NO2
C#CC1=COC(=CO1)N(=O)=O,4.924149195997961,2.099098993899679,0.0,H3C6NO4
CN(C)c1ccc(C(=O)O)[nH]1,3.587895650192513,0.1828468977360899,0.0,H10C7(NO)2
C#C[C@@H]1C=CSC(=C1)C=C,4.414300009213184,0.4168237342324574,0.0,H8C9S
Cn1ccc(c1C(=N)O)O,4.457099249282328,-0.1816454366129618,0.0,H4C3NO
Cc1ccn(C)c1,4.119102919674878,-1.1760349391210183,0.0,H9C6N
C=C[C@@H]1C=CSC=C1C#C,4.267694156138168,0.5284159813141742,0.0,H8C9S
CNc1cc([nH]c1)O,3.0024101680242894,-0.4757804522345394,0.0,H8C5N2O
C#CC1=C(O)OC=CO1,4.004289715230334,0.417564104898338,0.0,H4(C2O)3
C=CC1=COC(=CO1)F,4.187630890118816,0.3774975608608657,0.0,H5C6O2F
CC1=C(C#N)OC=CO1,4.506854717666647,0.6242647735540232,0.0,H5C6NO2
C=CC1=COC=C(O)O1,3.8406240016971434,-0.0162656355099897,0.0,H2C2O
C#CC1=CSC=C(C=C)C1,4.076995482786151,0.5658960870074226,0.0,H8C9S
C#CC1=COC=CO1,4.180511553678661,0.453703270548067,0.0,H2C3O
Cn1cc(cc1OC)O,3.4207323884580547,-0.5023827718527172,0.0,H9C6NO2
Cn1ccc(c1)OC,3.800790567727381,-1.210131388143418,0.0,H9C6NO
Cn1cc(cc1C(=O)O)N,3.707429536934433,0.3093248738528928,0.0,H4C3NO
CC[C@@H]1C=COC(=C1)C(=N)O,4.740225682824166,0.5115202171560669,0.0,H11C8NO2
C=C[C@@H]1C=CSC(=C1)C#C,4.356670910526736,0.5778948569255591,0.0,H8C9S
C=CC1=C(F)OC=CO1,4.131894367954009,0.5114976128912532,0.0,H5C6O2F
C=CC1=COC(=CO1)O,3.853095586278505,0.2523354619257589,0.0,H2C2O
C#Cc1cc(CC)n(C)c1,4.165972525617326,-0.3964906892691942,0.0,H11C9N
C#Cc1c[nH]cc1CC,4.383876030327519,-0.8070880903527722,0.0,H9C8N
Cc1c(ccn1C)C#N,4.661506424612162,-0.3595801015129836,0.0,H8C7N2
C=CC1=COC=C[C@H]1OC,4.460444067142452,0.278836684262933,0.0,H5C4O
C#CC1=C(C#N)OC=CO1,4.675077554509334,1.3371765035659338,0.0,H3C7NO2
Cc1cc(C#N)n(C)c1,4.6835600361606335,0.0451566220050154,0.0,H8C7N2
C=Cc1ccc(C#N)n1C,4.421070974321628,0.5690968151498965,0.0,H4C4N
C#Cc1cc(C(=O)O)[nH]c1,4.855571693098318,0.5077759779484041,0.0,H5C7NO2
C#CC1=C(C=C)SC=CC1,4.165065265425801,0.9204674065855216,0.0,H8C9S
CC1=C(C)OC=CO1,3.8058006888310048,-0.6029812285145453,0.0,H4C3O
C1C=C(F)OC(=C1)N,3.9259397058427568,-0.6860401513262331,0.0,H6C5NOF
C=CC1=C(C#N)OC=CO1,4.478233565177652,1.191976536612492,0.0,H5C7NO2
CCC1=COC(=CO1)C,3.796396689943868,-0.7140111000684555,0.0,H10C7O2
C=CC1=C[C@@H](C=CO1)NC,4.348895504486427,0.1889369729284227,0.0,H11C8NO
Cn1cc(C#N)c(c1)OC,4.3035774951018535,-0.0845012914800462,0.0,H8C7N2O
C1C=COC(=C1)N(=O)=O,5.046596511214011,2.0986997341493407,0.0,H5C5NO3
c1ccc(cc1)C1=COC=C(C1)C#N,4.500596028684958,0.674025059631822,0.0,H9C12NO
C#CC1=COC(=CO1)C,4.0670505652866265,0.3939819049915969,0.0,H6C7O2
C1C=C(F)OC=C1N,3.7181855139675455,-0.7169472220724855,0.0,H6C5NOF
C#Cc1ccc(n1C)N(=O)=O,5.106847777762232,1.8955117213296035,0.0,H6C7(NO)2
C=Cc1cc(C=C)[nH]c1,3.853323295310111,-0.1545621040844707,0.0,H9C8N
C1C(=COC=C1N)F,3.630254816874731,-0.7233310018422343,0.0,H6C5NOF
C1=COC(=C(C1)F)N,3.7742221589356633,-0.6981414129189942,0.0,H6C5NOF
CCc1cc(C=C)[nH]c1,3.834363594894603,-0.1897366327597409,0.0,H11C8N
Cn1cc(c(c1)OC)OC,3.773267061130901,-0.9454975317479692,0.0,H11C7NO2
Cn1ccc(c1F)C(=N)O,4.853360547751072,0.8246586192977703,0.0,H7C6N2OF
C#Cc1c[nH]cc1NC,3.4242845570657665,-0.8753607313541578,0.0,H8C7N2
C#Cc1cc(cn1C)N(=O)=O,4.967256706511398,1.7360141268451117,0.0,H6C7(NO)2
C#Cc1cc(c[nH]1)O,4.043909182919014,0.1110557295574836,0.0,H5C6NO
c1ccc(cc1)c1c[nH]cc1C#N,4.5197247308384245,0.0868217881103192,0.0,H8C11N2
Cc1cc(C#N)c[nH]1,4.722713003936951,-0.5284324609205213,0.0,H3C3N
Cc1c(ccn1C)OC,3.5513157025230613,-0.9350073391855402,0.0,H11C7NO
C#Cc1c(cc[nH]1)N,3.4953662319490832,0.1911829664019024,0.0,H3C3N
C#Cc1cc(C#N)c[nH]1,4.830044304777038,0.3246078292246239,0.0,H4C7N2
CN(C)c1ccc(C(=O)O)n1C,3.721349142109466,0.1626065203960025,0.0,H6C4NO
C=CC1=COC(=CC1)NC,3.525385613621984,0.1567499098415283,0.0,H11C8NO
C#Cc1cc(F)[nH]c1,4.485839526512427,-0.6724757717187457,0.0,H4C6NF
Cn1cc(C#N)c(c1)C(=O)O,5.444942462912513,0.6551406259073702,0.0,H6C7(NO)2
Cc1cn(C)cc1C#N,4.729276155705156,-0.2261714403506629,0.0,H8C7N2
C#Cc1ccc(CC)[nH]1,4.096667043886191,0.020398821876006,0.0,H9C8N
CCc1cc[nH]c1C=C,3.8337242443809374,-0.1021304341360518,0.0,H11C8N
C=Cc1cc[nH]c1OC,3.59750383200626,-0.6217998591731884,0.0,H9C7NO
Cc1c(ccn1C)N(C)C,2.862103616973036,-0.929817382690453,0.0,H7C4N
Cn1cc(cc1OC)OC,3.328703031094483,-0.9376551047957036,0.0,H11C7NO2
Cn1ccc(c1O)C(=O)O,4.330543375135312,-0.1317811825014359,0.0,H7C6NO3
CCc1cc([nH]c1)N(C)C,3.0084451821127005,-0.7492910510740329,0.0,H7C4N
c1cc(F)[nH]c1C(=O)N,4.811526277777011,0.2708190350454971,0.0,H5C5N2OF
CNc1cc([nH]c1)N(C)C,2.6652626567207336,-0.7280334174160088,0.0,H13C7N3
c1ccc(cc1)c1ccc(F)[nH]1,3.9595422355956544,0.0556597603004775,0.0,H8C10NF
CN(C)c1c(cc[nH]1)OC,2.8620290877148364,-1.0259024798109748,0.0,H12C7N2O
c1ccc(cc1)c1cc[nH]c1N(=O)=O,4.971986390615347,1.81785919929971,0.0,H4C5NO
C#Cc1cc([nH]c1)O,4.016780358396863,-0.7932411558980674,0.0,H5C6NO
C#Cc1cc(c[nH]1)N(C)C,3.2479842541393737,0.185918121458235,0.0,H5C4N
Cc1c[nH]cc1C#N,4.839264261779681,-0.5049718125759681,0.0,H3C3N
CNc1cc(n(C)c1)OC,2.964121437965878,-0.9384797675505978,0.0,H12C7N2O
Cc1cn(C)cc1OC,3.6890839403109568,-1.218892343520929,0.0,H11C7NO
C=Cc1c[nH]cc1N(C)C,3.325996069839312,-0.3726515795555314,0.0,H6C4N
c1c(c(c[nH]1)O)O,4.110120226894287,-0.6712832110519229,0.0,H5C4NO2
C=Cc1cc([nH]c1)O,3.795321446924936,-0.5720060498955717,0.0,H7C6NO
c1c[nH]cc1N,3.407449668443951,-0.7957708540347084,0.0,H3C2N
Cn1cc(cc1C(=O)O)C#N,5.3871549667652285,0.593813380424399,0.0,H6C7(NO)2
COc1cc(c[nH]1)C(=O)O,4.31253776298181,-0.0269926276563636,0.0,H7C6NO3
Cc1cc(C(=O)O)n(C)c1,4.617441923228034,0.3015780432102475,0.0,H9C7NO2
c1c[nH]cc1N(=O)=O,5.3352508167059565,1.65785007978011,0.0,H2C2NO
Cc1cc[nH]c1C,3.911617437496352,-0.823877889709729,0.0,H9C6N
c1ccc(cc1)c1c(cc[nH]1)N(=O)=O,4.735881727303058,1.6222240924776998,0.0,H4C5NO
c1c[nH]c(c1C(=O)O)N,3.825593559076515,-0.5936226779907883,0.0,H6C5(NO)2
c1c(c[nH]c1F)C(Cl)(Cl)Cl,4.831810772587778,2.602916344907135,0.0,H3C5NCl3F
c1c(c(c[nH]1)O)C(=N)O,4.667786044648528,-0.4105183780578954,0.0,H6C5(NO)2
c1c(C#N)c[nH]c1C#N,5.536784358336808,0.3335795911931201,0.0,HC2N
c1c[nH]c(c1N(=O)=O)C(=O)O,5.806600584690022,2.4428687348859968,0.0,H4C5(NO2)2
CCc1cc(F)[nH]c1,4.218388274182507,-0.7724468612635973,0.0,H8C6NF
CNc1cc(C#N)cn1C,3.6361773174299743,-0.4593718816435284,0.0,H9C7N3
Cn1ccc(c1C(=O)O)OC,4.529836336861626,0.1578765073914838,0.0,H9C7NO3
C=Cc1cc[nH]c1N(C)C,3.158060851079062,-0.4686551051112473,0.0,H6C4N
C#Cc1cccn1C,4.258410222451493,0.0789977016280318,0.0,H7C7N
C=Cc1cc(N)[nH]c1,3.3342352306059184,-0.5708662602632102,0.0,H4C3N
C=Cc1cn(C)cc1N,3.4140486548854825,-0.2461445471239129,0.0,H10C7N2
Cc1cc[nH]c1C(=N)O,4.635189748334232,0.0470062028121902,0.0,H8C6N2O
COc1c(cc[nH]1)C(=O)O,4.314461539793774,-0.4027982363444606,0.0,H7C6NO3
CNc1cc[nH]c1F,3.3188245531597205,-0.7242864397889206,0.0,H7C5N2F
c1c[nH]c(c1C(=O)O)F,5.021107469175695,0.6224017773161905,0.0,H4C5NO2F
Cc1c(cc[nH]1)N,3.240885283009993,-0.7199863962290691,0.0,H8C5N2
c1c(c[nH]c1C#N)N,3.885861949747414,0.0629212731888402,0.0,H5C5N3
c1c(c[nH]c1C#N)F,5.109197850831697,0.2605935031238915,0.0,H3C5N2F
C=Cc1ccc(C(=O)O)[nH]1,4.42434350242147,0.6821815712643002,0.0,H7C7NO2
CNc1ccc[nH]1,3.173679728262505,-0.6485266191706613,0.0,H8C5N2
C=Cc1cc(C(=O)O)[nH]c1,4.484961148483853,0.4599428686047759,0.0,H7C7NO2
C#Cc1c(C)cc[nH]1,4.176726652278012,0.0726494735332381,0.0,H7C7N
C=Cc1cc(N)n(C)c1,3.303095475315422,-0.5370543770099174,0.0,H10C7N2
C#Cc1ccn(C)c1O,3.930283769260859,-0.0300756284690577,0.0,H7C7NO
Cc1c(ccn1C)C(=O)O,4.599592104410112,-0.0537680143992473,0.0,H9C7NO2
c1c[nH]c(c1C#N)N(=O)=O,5.96734857492047,2.31238617369454,0.0,H3C5N3O2
Cn1ccc(c1)C(Cl)(Cl)Cl,4.7091053391864985,2.657587098133809,0.0,H6C6NCl3
Cc1ccc(C)[nH]1,3.849305686867047,-0.8741801083227982,0.0,H9C6N
Cn1ccc(C#N)c1C(=O)N,5.149808487457994,0.7777949372772128,0.0,H7C7N3O
Cn1ccc(c1C#N)N(=O)=O,5.688120007079851,2.128513367140477,0.0,H5C6N3O2
c1c[nH]cc1C(Cl)(Cl)Cl,4.842986109697085,2.578876532193681,0.0,H4C5NCl3
c1c(c[nH]c1C(=O)N)C(=O)O,5.2670807054761095,0.3285942343714851,0.0,H6C6N2O3
COc1cc[nH]c1OC,3.2991915179369244,-0.6543719754521589,0.0,H9C6NO2
c1c(c[nH]c1C(=O)O)C(=O)O,5.440527293436025,0.6612241171675124,0.0,H5C6NO4
C=Cc1ccc([nH]1)N(=O)=O,4.823819787795946,1.879626218843987,0.0,H3C3NO
Cc1c[nH]cc1N(=O)=O,5.045978766541884,1.5189189281260045,0.0,H6C5(NO)2
C=Cc1cc(c[nH]1)C(=O)O,4.409963788118693,0.2109721623161022,0.0,H7C7NO2
C#Cc1ccn(C)c1C=C,4.089352961323675,0.242749368764271,0.0,H9C9N
C#CC1=CCC=C(C(=N)O)S1,4.561525443730352,0.7095054143333983,0.0,H7C8SNO
C#C[C@@H]1C=CSC=C1OC,3.964372286163416,-0.0449046136040123,0.0,H8C8SO
CN(C)c1cc(F)[nH]c1,3.258918971870662,-0.7311852167680626,0.0,H9C6N2F
c1ccc(cc1)[C@@H]1C=CSC=C1,4.225705842521711,-0.1396452316243084,0.0,H10C11S
Cn1c(ccc1OC)O,3.2373612618608605,-0.4209644119895528,0.0,H9C6NO2
CCc1ccc([nH]1)N(C)C,2.9364232152362093,-0.7778486991977842,0.0,H7C4N
CCc1cc(c[nH]1)O,3.778754008109536,-0.571958250377429,0.0,H9C6NO
C#CC1=CSC=C[C@H]1C(=N)O,4.590278287183173,0.6949992242349254,0.0,H7C8SNO
c1c(c[nH]c1N(=O)=O)C(Cl)(Cl)Cl,5.707984366281016,2.313353299048322,0.0,H3C5N2Cl3O2
Cc1c[nH]cc1OC,3.761367337930642,-0.9831864657611732,0.0,H9C6NO
C#CC1=C(C(=N)O)SC=CC1,4.386133971094386,1.311316532237106,0.0,H7C8SNO
C=CC1=C(CC=CS1)C#N,4.549153246554488,1.2587847162336403,0.0,H7C8SN
CNc1cc[nH]c1C(=N)O,4.024406163685489,-0.122272202508975,0.0,H9C6N3O
CNc1ccc(n1C)N(=O)=O,4.095637427708061,1.4364716432515707,0.0,H9C6N3O2
CNc1ccc(NC)[nH]1,2.471105500833437,-0.6774340205578482,0.0,H11(C2N)3
C=CC1=CCC(=CS1)C#N,4.444339831390243,0.8750991479297228,0.0,H7C8SN
C#Cc1cc[nH]c1C,4.231056329853891,-0.9413949231042352,0.0,H7C7N
C1C=C(F)OC(=C1)O,4.459682643642372,-0.4119932051329669,0.0,H5C5O2F
Cc1c[nH]cc1[C]([NH])O,4.752024937919122,-0.4122619039429991,0.0,H8C6N2O
C#CC1=C(OC)SC=CC1,3.9348667976060825,0.4171269887789095,0.0,H8C8SO
C1C=C(N(=O)=O)OC=C1C#N,5.565882810851326,2.2778077675280657,0.0,H4C6N2O3
CC1=COC(=CO1)O,3.7789700999015614,-0.512708359307362,0.0,H6C5O3
C#C[C@@H]1C=CSC(=C1)C,4.33823199790786,-0.1786269730422645,0.0,H8C8S
Cn1cc(c(c1)O)F,4.209370628377291,-0.4296981668689112,0.0,H6C5NOF
C=CC1=CSC=C[C@H]1C(=O)O,4.363727763878705,0.929069395778788,0.0,H8C8SO2
C(#N)C1=COC=C(C#N)O1,5.184739925632675,1.270805282317815,0.0,HC3NO
Cn1ccc(c1O)O,3.415927217259741,-0.4965834675025689,0.0,H7C5NO2
Cn1c(ccc1N(=O)=O)F,5.327836737753023,1.7353458696794406,0.0,H5C5N2O2F
c1ccc(cc1)C1=COC(=CC1)F,4.355469737458042,0.2943045899697609,0.0,H9C11OF
C1COC(CO1)(F)F,6.232588613136249,-1.0779798516126902,0.0,H3C2OF
C#CC1=CSC=C[C@H]1OC,4.505393515389732,0.5226849046826829,0.0,H8C8SO
CC1=COC=CO1,3.927455030705096,-0.4760252217423839,0.0,H6C5O2
C1=COC(=C[C@@H]1C#N)N(=O)=O,5.688683758924162,2.348478830790191,0.0,H4C6N2O3
C#CC1=C(C)SC=CC1,4.076137189474684,0.3961849363309739,0.0,H8C8S
C1=COC(=CO1)C#N,4.656607728944072,0.791598573628653,0.0,H3C5NO2
C(#N)C1=COC(=CO1)C#N,5.225206515125683,1.2477868533329457,0.0,HC3NO
C1C=C(C#N)SC=C1O,4.1443171702791,0.7486339985058295,0.0,H5C6SNO
C1=C(C(=O)O)OC=C(F)O1,4.7835507613286605,0.9784059129793604,0.0,H3C5O4F
CC1=COC=C(N)O1,3.3958068972129696,-0.8291563453007256,0.0,H7C5NO2
CN(C)c1cc(cn1C)C(=O)O,3.690331223071189,0.0479944304766832,0.0,H6C4NO
C=Cc1ccc(C)n1C,3.664456712731044,-0.1165434170783554,0.0,H11C8N
C1=COC=C([C@@H]1F)C(=O)O,5.800564732398561,0.9069838856044954,0.0,H5C6O3F