smiles,IE,EA,charge,formula_pretty
N([N][O])(O)c1ccccc1.N,5.019441457643188,1.5195199976620644,0.0,H9C6N3O2
N(CC(=O)C)(C)C,3.9518521270852944,0.2265708187220299,0.0,H11C5NO
C(C(F)(F)F)(C(F)F)(F)F,8.17781788885768,0.9734664692601656,0.0,HC3F7
[C@H](C[C@@H](C#N)C)(CCC#N)C#N,7.467530333443937,-0.5253244038653064,0.0,H11(C3N)3
[C@H]([C@@H](C)O)(C(=O)O)N,4.963388025973108,0.0911039673952474,0.0,H9C4NO3
c1(ccc(cc1)[NH])[NH],5.59386396666523,1.9566650262055192,0.0,H3C3N
C1(=Cn2c(=C([CH]1)C)nc[c]c2)C=C,3.485687578089346,1.2275605294613343,0.0,H10C11N2
C1(=C(C(=O)C=C(C1=O)Cl)Cl)Cl,6.192938492838584,3.243537010597356,0.0,HC6Cl3O2
C(=O)(C(=C)CCl)OCC,6.07025417547411,2.4366046035735054,0.0,H9C6ClO2
C(C#N)C,7.707757366304213,-0.483099092701559,0.0,H5C3N
[Si](OC)(OC)(OC)C,5.990179263402387,-0.7384135344895184,0.0,SiH12C4O3
O=C1CC(=O)NC(=S)N1,5.363870552949811,1.4542409109322765,0.0,H4C4S(NO)2
C12=CC=CC1=CC=C2,3.783014548902065,2.051032935343392,0.0,H3C4
N(C)C,4.311284618891113,-0.9127901014207054,0.0,H7C2N
CC1=CC=CCC1,4.070660163769025,-0.1085046164511367,0.0,H10C7
C(=O)(C)c1c(C)cc(c(c1)C)C,5.016242310480811,0.7153089820891183,0.0,H14C11O
c1(cc(ccc1)O)OCC,4.426241640665102,-0.4887150678991019,0.0,H5C4O
c1(ncccc1)Cl,5.770338585714489,0.3330440575533431,0.0,H4C5NCl
c1(sccc1)Cl,4.905827529911766,1.2525053438235774,0.0,H3C4SCl
N(=O)(=O)c1cc2c(cc1)[nH]cc2,4.657427530691711,1.8147702419206329,0.0,H3C4NO
C(C=O)C,6.089579888050684,0.2113711111356679,0.0,H6C3O
c12c(C(=O)C(=C(C1=O)C#N)C#N)cccc2,6.362240670024766,3.485889573633904,0.0,H2C6NO
C(=O)(O)c1cc(C(=O)O)cc(c1)C(=O)O,6.265385822721873,1.4336086355957378,0.0,H2C3O2
S(=O)(=O)(N)c1ccc(cc1)Cl,5.721728847145277,0.7812227553018602,0.0,H6C6SNClO2
S([C@@H](C#N)F)c1ccccc1,5.121097326407471,1.2504075012308022,0.0,H6C8SNF
S(SN1CC1)N1CC1,4.560827180570049,1.5234015301408363,0.0,H4C2SN
C[C@H]1[C@H](O1)c1ccccc1,5.134094381317118,-0.4188252434709283,0.0,H10C9O
S(=O)(=O)(C=C(Cl)Cl)c1ccccc1,5.935458637149713,1.7798891934668064,0.0,H6C8S(ClO)2
Cc1cc(C)cnc1,5.316589682315316,0.0260610972432915,0.0,H9C7N
S([C@@H](C(=O)OCC)F)c1ccccc1,4.903617456680513,1.142385368662508,0.0,H11C10SO2F
[C@H](CC(=O)C)(O)c1ccccc1,5.2644614220222135,-0.2393364711319008,0.0,H6C5O
c12c(cccc2)CC=CC1,4.831208154713385,-0.5256225181805347,0.0,HC
C[C@H]1[C@](C)(O)CCCC1,5.282371527658688,-0.7878094616338784,0.0,H16C8O
CC1=C(C)CCCC1,4.392718067466921,-0.9559311137476468,0.0,H7C4
N(CC)(CC)C=O,5.342220936490412,-0.8615460804889152,0.0,H11C5NO
N=C1c2c(C(=O)C=C1)cccc2,5.814774046291495,2.155907747553647,0.0,H7C10NO
[S@]([O])(O)c1ccc(cc1)C,5.394693328272842,1.459395364732336,0.0,H8C7SO2
C(C(Cl)Cl)(Cl)Cl,7.01818354078714,2.263890733820153,0.0,HCCl2
C(CC)c1cc(=O)[nH]c(=S)[nH]1,5.048046679332037,0.7246855923054683,0.0,H10C7SN2O
N(C(=O)C)c1ccc(cc1)S,4.240563862201816,0.0706482830551977,0.0,H9C8SNO
[S@@](=O)(C=C(Cl)Cl)c1ccc(cc1)C,5.114849160019366,1.6657118159288076,0.0,H8C9SCl2O
N(CC)c1nc(Cl)nc(n1)N,5.325674191930011,1.0385134619369638,0.0,H8C5N5Cl
C(=O)(O[C@@H](CCC(=O)N1CCCC1)C)c1ccc(cc1)C,5.222054885760008,0.5122379482869293,0.0,H23C17NO3
[C@H](CCC)(CC)S,5.223239342876331,-0.8052623860879975,0.0,H14C6S
C(C(F)(F)F)N1CCCCC1,4.2470806403303865,-0.8854660705968853,0.0,H12C7NF3
S(=O)(=O)([O])O.C(CCCCCCC)N1[CH]N(C=C1)C,5.717455914289166,0.4533845713463962,0.0,H24C12S(NO2)2
N(C(CC)(C)C)C(=O)C,5.503294295954765,-0.9067915123945568,0.0,H15C7NO
C(#N)[C]1N([N]OC1=O)c1ccc(cc1)C,5.580606316494231,2.0444797919204576,0.0,H7C10N3O2
C1(=O)OCCN1,5.862050141327563,-0.7264425936522456,0.0,H5C3NO2
[C@H](C)(O)c1ccc(cc1)C,5.023734235761003,-0.3764787464082473,0.0,H12C9O
S(C=C(Cl)Cl)CCCC,4.551605373207712,1.4875040412531235,0.0,H10C6SCl2
C([S@](=O)C=C(Cl)Cl)c1ccccc1,4.900239895368577,1.6827193580626043,0.0,H8C9SCl2O
c1cc2c(cc1C(Cl)(Cl)Cl)C(=O)c1c(C2=O)c(ccc1)C,5.730731592005759,2.290769137429016,0.0,H9C16Cl3O2
c1(nnc(nn1)Cl)Cl,5.790789314860012,2.898129393922864,0.0,CN2Cl
O(C(=O)CC)C(=O)CC,5.972917849943405,0.3159603072195751,0.0,H10(C2O)3
C(C(C)(C)C)OC,5.456200351203369,-1.042464846425355,0.0,H14C6O
c1c(c2c(cc1)ncc(n2)C)N(=O)=O,5.498899352698208,2.147555243210809,0.0,H7C9N3O2
C(C(C)(C)C)NC(=O)C,5.413450535173615,-0.7797237050439434,0.0,H15C7NO
c1(C(=O)OC)sccc1,5.377960014303971,0.8971142132773822,0.0,H6C6SO2
C(C=O)(C)C,5.952825636222405,0.2559037326805993,0.0,H8C4O
c1c(c2c(cc1)nc(cn2)NC)NC,3.620703278281872,0.9063645245747468,0.0,H6C5N2
S([O])([O])(O)c1cc(N(=O)=O)ccc1C,6.308135412896808,2.2474854122716352,0.0,H7C7SNO5
C(=O)C1CCCCC1,5.732856082700527,0.1412143892899622,0.0,H12C7O
N(=O)(=O)[C@@H]1C(=O)CCCC1,6.094617006364933,1.7339017316058745,0.0,H9C6NO3
O(C)c1cc(OC)cc(c1)OC,4.354497134570556,-0.8205633662804757,0.0,H4C3O
N(C(=O)C)(CC)CC,5.13667989544374,-0.9131602061737794,0.0,H13C6NO
C(=NC)=S,5.552326151113084,1.0593227908608245,0.0,H3C2SN
c1(cc2c(cc1)ncc(n2)C)CC,5.211526888425942,1.1394037710721023,0.0,H12C11N2
c1(c(n2c(c1C)cccc2)[N][N]c1ccccc1)c1ccccc1,3.6935188244402526,1.3504040443018313,0.0,H17(C7N)3
c1c(c2c(cc1C#C)nccn2)C#C,5.150167963447165,1.6505696685850126,0.0,H3C6N
c1cc2c(cc1NC)C(=O)c1c(C2=O)c(ccc1)C,4.292874825166654,1.910025631293684,0.0,H13C16NO2
c1c(c2c(cc1)C(=O)c1c(C2=O)c(ccc1)C)C(Cl)(Cl)Cl,5.790110031646327,2.145936535942019,0.0,H9C16Cl3O2
S(SC#N)C#N,6.367773971594579,3.600084268489445,0.0,CSN
N(=O)(=O)c1ccc(cc1)N=C=S,5.428029872187471,2.2372836331684085,0.0,H4C7S(NO)2
N1(N=C[CH]C=C1)[O],5.279370098412619,1.0413439438267234,0.0,H4C4N2O
S1[N]S[N]S[N][S]=N1,3.809438772741123,2.994623271342425,0.0,SN
c1c(c2c(cc1)ncc(n2)CC)C,5.044827994397201,1.1233266732302585,0.0,H12C11N2
C1(=C)CC1,5.477535880264076,-0.3274665814082254,0.0,H3C2
C(=C)(F)F,6.047762042869726,0.2616698521329454,0.0,HCF
[C@H]1(OC=CO1)C,4.078689018633304,-1.4324452976237807,0.0,H3C2O
[N]([N]c1ccc(cc1)N(C)C)c1c(C(=O)O)cccc1,4.007747158566053,1.5786103449405346,0.0,H15C15N3O2
C(O)c1c(N(=O)=O)cccc1,5.869419305170231,1.9691600582915272,0.0,H7C7NO3
Oc1cc(O)cc(c1)O,4.633876091569254,-0.6492652640230516,0.0,H2C2O
N(=O)c1c(C)cccc1,4.57036934485186,2.1942321707862,0.0,H7C7NO
C(=C)=C,5.581072194436365,0.040707749779449,0.0,H4C3
c1(cc2c(cc1C(=O)O)nccn2)C(=O)O,5.804702903596626,1.771382906704821,0.0,H3C5NO2
C1(=C(C(=O)C=C(C1=O)C)C)C,5.694176485603384,2.4778187424341014,0.0,H10C9O2
Cc1cc(C)cc(c1)C,4.886021642528794,-0.7837982369786913,0.0,H4C3
C(CNC(=O)[C@H](C)O)n1cccc1,4.39523978450743,-0.3144708299281773,0.0,H14C9(NO)2
O=C1c2c(C(=O)N1O)cc(c(c2)Cl)Cl,5.568593655168661,2.063481786988268,0.0,H3C8NCl2O3
C(=O)(O)c1c(Cl)c(Cl)c(cc1)OC,5.240619857840647,1.933157457273046,0.0,H6C8Cl2O3
C(C)(C)[C@@H]1NC(=O)OC1,5.69792935177029,-0.7369460136709676,0.0,H11C6NO2
c1c(c2c(cc1)ncc(n2)c1ccccc1)C,4.843060791337484,1.2906762785183674,0.0,H12C15N2
C(=C)(C)c1ccc(cc1)C,4.511287754197474,0.1975339700598852,0.0,H6C5
O=S1(=O)c2c(CN1C)cccc2,5.203495290648425,0.4257066646365275,0.0,H9C8SNO2
Cn1cccc1.c1cc[nH]c1,4.03874933582083,-0.4645329859071352,0.0,H12C9N2
C([Si](C)(C)Cl)(C)(C)C,5.3108915831595365,-0.6894567990770155,0.0,SiH15C6Cl
C(S)(C)C,5.294716638627142,-0.7706797893701149,0.0,H8C3S
C(=O)([N][N]C(=O)OCC)OCC,5.5206607861742665,2.8213591411564267,0.0,H5C3NO2
S(Sc1cccs1)c1cccs1,4.517966456392605,2.2268156532605645,0.0,H3(C2S)2
O=C1c2c(S(=O)(=O)N1C)cccc2,6.104430043638422,1.3675365193390463,0.0,H7C8SNO3
C(=O)(O)c1cc(Cl)c(cc1)C,5.518357745256799,0.9238902558114206,0.0,H7C8ClO2
c1(C(=O)C#N)ccc(cc1)C(=O)C#N,6.551839611625473,2.838730295401183,0.0,H2C5NO
c12c3c(nnc1cccc2)cccc3,4.879439347554216,1.4124177731388046,0.0,H4C6N
Nc1ccc(cc1)c1cccs1,3.645618704345543,0.2270365497184685,0.0,H9C10SN
c1cc2c(cc1)C(=O)c1c(C2=O)c(c(cc1)C#N)C,5.9751940713191285,2.3571161730120367,0.0,H9C16NO2
S=c1c2c([nH]c(=S)s1)cccc2,4.980870687033166,2.047368606852251,0.0,H5C8S3N
C(=CC=C)(OC)OC,3.8791517748719344,0.0078242481937196,0.0,H5C3O
N(=C=S)c1ccccc1,4.964207306320168,1.2145970479556127,0.0,H5C7SN
c1(cc2c(cc1C#C)nccn2)C#C,5.3564175154566325,1.601218868796059,0.0,H3C6N
Cc1c(ssc1=S)c1cnccn1,4.729624292705557,2.007897610195505,0.0,H6C8S3N2
C(=O)(O)c1c(O)c(O)c(cc1)O,4.764933724539878,0.7664401165980963,0.0,H6C7O5
C(C(CC(C)C)O)C(C)C,5.695140778134009,-0.9428604928638378,0.0,H20C9O
CC1(C)[C@H]2[C@@H]1CCC2,4.604506428633249,-0.8750339743350195,0.0,H7C4
O=C1C[C@@H]2[C@@H](CC1)CCCC2,5.459654014600892,-0.063501629807797,0.0,H16C10O
C1CCC(CC1)N(=O)=O,6.8072006092821535,1.3942022685019766,0.0,H11C6NO2
c1(c(cc(cc1)N(=O)=O)N(=O)=O)S[N]C1=C[CH]C(=O)C=C1,4.99603561846161,2.6162252313966747,0.0,H7C12SN3O5
[C@]123[C@@H]4[C@@H]1[C@H]3CCC[C@H]24,0.770989236838068,2.2045151051203,0.0,H5C4
S(CCC)CCC,4.760370405399589,-1.0371921210629806,0.0,H14C6S
c1cc2c(cc1)C(=O)c1c(C2=O)c(c(cc1)C(Cl)(Cl)Cl)C,5.810062906749954,2.246918705278949,0.0,H9C16Cl3O2
S(=O)(=O)(OC)OC,7.086514476731827,1.8573164079512936,0.0,H6C2SO4
[C@H](CO)(O)[C@H]1C(=C(C(=O)O1)O)O,5.0252609712712,0.6874557170573099,0.0,H4(CO)3
C(CN)C1=CC(=O)C(=O)C=C1,4.993609756249134,2.8268363029215835,0.0,H9C8NO2
c1(cc2c(cc1)C(=O)c1c(C2=O)c(ccc1)F)F,5.941533026206889,2.3127120898803697,0.0,H3C7OF
c1(ccccc1)SOC,4.403800306272023,1.5641337499488146,0.0,H8C7SO
c12c(ccc(c1)C)[nH]cc2,4.153261527660652,-0.4627096299867843,0.0,H9C9N
O=C1c2c(C(=O)N1O)ccc(c2)Cl,5.537240562630904,1.9703630790187163,0.0,H4C8NClO3
c1(C2CC2)ccc(cc1)Cl,4.671145883190183,1.108574364339438,0.0,H9C9Cl
O(C)c1c(C)ccc(c1)C,4.374793534352284,-0.8720443167334451,0.0,H12C9O
C(CS([O])([O])O)N1CCOCC1,4.163331296179967,-0.2381926841466337,0.0,H13C6SNO4
C(=O)N1CCN(CC1)C=O,5.146562838766476,-0.8780639183900347,0.0,H5C3NO
c12c3c(ccc1CCCC2)cccc3,4.3318353281025335,0.2234871403485159,0.0,HC
C(C(F)(F)F)N1[C@@H](C#N)CCCC1,4.817544042661757,-0.651575788068294,0.0,H11C8N2F3
C(O)[C@@H]1[C@@H](O)[C@H](O)[C@H](C(=O)O1)O,5.803941096417111,-0.078338576992246,0.0,H5(CO)3
C12=C(C(=O)C1=O)N(CCN2C)C,3.999177850242268,0.5011115753401101,0.0,H5C4NO
c12c(S(O)([O])[O])cc(c(c1cccc2)O)[N][O],4.600205756492505,2.3468712067202437,0.0,H7C10SNO5
c1c(c(cs1)N(=O)=O)N(=O)=O,6.248767133981891,2.3562615641290905,0.0,H2C4S(NO2)2
C(C(=O)Sc1ccccc1)c1ccccc1,4.965936693167896,0.5997291978615977,0.0,H12C14SO
C1[C@H](C[C@H](SC1)C)NC,4.355140539575222,-0.7516231347930442,0.0,H15C7SN
C(=O)(OC)[C@@H]1C(=O)CCCC1,5.687860198229464,0.4505787048743515,0.0,H12C8O3
S([C@]1(F)C(=O)OCC1)c1ccccc1,4.9184987529821225,1.2692120287370927,0.0,H9C10SO2F
[C@H](C(=O)O)(CCCC)F,6.605000807886972,1.1237744447185831,0.0,H11C6O2F
C[C@@H]1C(=O)CCCC1,5.43159176886329,0.0131101874027081,0.0,H12C7O
C(=O)c1c(C)cc(cc1C)C,5.278412840024975,0.932714768819642,0.0,H12C10O
c12c(OCO1)cccc2,4.354378348716272,-0.3623927545035257,0.0,H6C7O2
c1(N(N)C)ccccc1,3.5788100630048576,-0.6889494237770122,0.0,H10C7N2
c1cc2c(c(c1)C(=O)O)C(=O)c1c(C2=O)c(ccc1)C(=O)O,6.260489746445819,2.9431156591796026,0.0,H4C8O3
c1c(c2c(cc1)nc(cn2)C)NC,3.798094308707368,1.083006526292229,0.0,H11C10N3
c1(cc2c(cc1)ncc(n2)OC)OC,4.787669695631484,1.1355233243353724,0.0,H5C5NO
N(=O)(=O)c1c(NN)ccc(c1)N(=O)=O,4.472801545683614,2.0960506134120807,0.0,H3C3(NO)2
Cl[C@@]12C(Cl)(Cl)[C@@]([C@@H]([C@H]1CCl)CCl)(C(=C2Cl)Cl)Cl,5.67589319217368,2.208740741867223,0.0,H6C9Cl8
C(C#N)(C#N)c1c2c(ccc1)cccc2,4.91266534794122,0.7411737834059751,0.0,H8C13N2
c1c(c2c(cc1)C(=O)c1c(C2=O)c(ccc1)CC)CC,5.474162738073209,1.9805353963580277,0.0,H8C9O
c1(cc2c(cc1)ncc(n2)C(=O)O)C,5.492505295185401,1.756157642188191,0.0,H4C5NO
C(=O)(OC(C)(C)C)C(=C)C,5.677100444255848,0.6005236831948424,0.0,H7C4O
c1(cc2c(cc1)C(=O)c1c(C2=O)c(ccc1)C#N)C,5.764578335756232,2.3792405437685376,0.0,H9C16NO2
c1(c(c2c(cc1)nccn2)C#C)C,4.982362118487435,1.420561813790846,0.0,H8C11N2
C1C[C@H]([C@H](SC1)C#C)C,4.8470140230834655,-0.8504978695149474,0.0,H12C8S
c1cc2c(cc1)C(=O)c1c(C2=O)c(ccc1N)N,3.757497707710718,1.8457743593477065,0.0,H5C7NO
Cc1c(ccs1)NC,3.4892486148870376,-0.4847998259596351,0.0,H9C6SN
c1(cc2c(cc1)C(=O)c1c(C2=O)c(ccc1)C(=O)O)C,5.975698254720191,2.6034071756927006,0.0,H5(C4O)2
S(=O)(=O)(CCO)c1ccc(cc1)O,5.362704629505606,0.3456609585424304,0.0,H10C8SO4
O(C)C1=C(OC)C(=O)C(=CC1=O)C,4.564473122330673,2.620662289716711,0.0,H10C9O4
Oc1c(C)cc(cc1C)C,4.312074026580012,-0.5261899680557689,0.0,H12C9O
Cc1cscc1C#N,5.322640947136824,0.5300243400903129,0.0,H5C6SN
Cc1ccc(F)s1,4.640050003539363,0.1950612824926794,0.0,H5C5SF
c1c(c2c(cc1)C(=O)c1c(C2=O)c(ccc1)C(=O)O)C(=O)O,6.123365251086943,2.726292095377721,0.0,H4C8O3
[SiH3]c1ccccc1,5.475770802966144,-0.1164921399435114,0.0,Si(H4C3)2
c1(c(N(=O)=O)cccc1)[S@@](=O)C,5.208839307114976,2.2787826997097,0.0,H7C7SNO3
c1cc2c(cc1)C(=O)c1c(C2=O)c(c(cc1)F)F,5.9242704698750455,2.305949617444276,0.0,H3C7OF
c1(cc2c(cc1)ncc(n2)C)C=C,4.867194812582602,1.327284934200725,0.0,H10C11N2
c1cc2c(cc1N)C(=O)c1c(C2=O)c(ccc1)N,4.310122774431511,1.9381499625247671,0.0,H5C7NO
c1(c(ccs1)N(=O)=O)N(=O)=O,6.182303173800028,2.8988637502639905,0.0,H2C4S(NO2)2
Cc1c(ccs1)O,4.256763019425852,-0.4451501974530401,0.0,H6C5SO
c1(cc(cs1)C#N)C#N,5.9042048117386,1.266372373882041,0.0,H2C6SN2
c1(ccc(cc1)Cl)N=O,4.755079489228228,2.329967407991353,0.0,H4C6NClO
C(=O)(CCC=C)N1[C@@H](OC)CCC1,5.196459920687266,-0.6974147791737777,0.0,H17C10NO2
[C@H](C(=O)c1ccc(cc1)F)(O)c1ccc(cc1)F,5.331811795754765,1.3127912667892816,0.0,H5C7OF
CC1(C)c2c(CC1)cccc2,4.912747275977017,-0.6095862635451339,0.0,H14C11
Cc1c(ccs1)C(=O)O,5.05332050403158,0.5871725156626781,0.0,H6C6SO2
c1(cc2c(cc1)C(=O)c1c(C2=O)c(ccc1)C(=O)O)C(=O)O,6.096903581672086,2.76385033039478,0.0,H4C8O3
Cc1cc(NC)sc1,3.4631385165463144,-0.7433729751850477,0.0,H9C6SN
ClC1(Cl)[C@@H]2[C@H]1CC(=O)[C@@H](C(=O)C2)C,5.828624208022665,0.7749647411052139,0.0,H10C9(ClO)2
C(=O)(O)c1cc(O)c(cc1)O,4.901376180170336,0.7077591020002729,0.0,H6C7O4
c1cc2c(cc1)C(=O)c1c(C2=O)c(ccc1C#N)C#N,6.19408929219353,2.6116703641106143,0.0,H3C8NO
c1(cc2c(cc1)C(=O)c1c(C2=O)c(ccc1)OC)C,5.099878553233429,2.1160373340368097,0.0,H12C16O3
c1cc2c(cc1F)C(=O)c1c(C2=O)c(ccc1)F,5.923052795818512,2.318715849066939,0.0,H3C7OF
c1(oc(cc1)c1cccs1)c1cccs1,3.701128376365523,0.7781864220174612,0.0,H8C12S2O
c1cc2c(cc1)C(=O)c1c(C2=O)c(c(cc1)C)N,4.415519465613761,2.013608765371464,0.0,H11C15NO2
c1c(c2c(cc1c1ccccc1)nccn2)C,4.783454723028262,1.2591671803944338,0.0,H12C15N2
O(C)[C@@H]1O[C@H](C=C1)OC,5.77690795256567,-0.2009704988362499,0.0,H10(C2O)3
N1(CCCO1)c1ccccc1,3.5587587670412177,-0.7419091279065468,0.0,H11C9NO
c1c(c2c(cc1)C(=O)c1c(C2=O)c(ccc1)N)N,4.259826928727852,1.9548942562883893,0.0,H5C7NO
Cc1ccsc1N(=O)=O,5.713208247203147,2.011746344791027,0.0,H5C5SNO2
c1cc2c(cc1)C(=O)c1c(C2=O)c(c(cc1)N)N,4.020084595923981,1.9493245812569515,0.0,H5C7NO
c1cc2c(c(c1)N)C(=O)c1c(C2=O)c(ccc1)N,4.355602354860457,1.9323427130635535,0.0,H5C7NO
c1c(csc1N)N,3.311030654991191,-0.5491454152892401,0.0,H6C4SN2
S1SCCC1,4.124163967682398,1.7607678302134446,0.0,H6C3S2
c1(ccc(s1)C#N)C#N,5.887849300624657,1.6983476912042534,0.0,H2C6SN2
c1cc2c(cc1C#N)C(=O)c1c(C2=O)c(ccc1)C#N,6.339804954777355,2.6393322215459194,0.0,H3C8NO
C1(=C)CCCCC1,5.1131235936451045,-0.7188806643693169,0.0,H12C7
c1cc(ccn1)c1ccnc(c1N(C)C)C,4.031100240304658,0.8344940651528305,0.0,H15C13N3
P(=O)(OCC)OCC,6.4200221007573415,-0.872824567794305,0.0,PH11C4O3
C(=O)(O)c1cc(S([O])([O])O)ccc1O,5.627141546230268,1.2187460710643792,0.0,H6C7SO6
c12c3[S]=[S]c1cccc2ccc3,3.790351132554497,2.104925206252665,0.0,H3C5S
c1cc2c(cc1C)C(=O)c1c(C2=O)c(ccc1)N,4.4685435491534005,2.025816023467633,0.0,H11C15NO2
c1(c(ccs1)C#N)C#N,5.918327291384776,1.6183706040515973,0.0,H2C6SN2
c1(c(c2c(cc1)nccn2)NC)NC,3.376327391024097,1.0748018423524628,0.0,H6C5N2
c1(cc(cs1)N(=O)=O)N(=O)=O,6.481999984034337,2.446425055951841,0.0,H2C4S(NO2)2
c1c(c2c(cc1)ncc(n2)C)NC,3.784553271024925,1.0917304932387195,0.0,H11C10N3
c1c(c2c(cc1)C(=O)c1c(C2=O)c(ccc1)C=C)C=C,5.145591808695462,2.1124936417778373,0.0,H6C9O
C1=C([CH]C=CN1[O])N,4.480604671234323,0.404449142449812,0.0,H6C5N2O
c1c(c2c(c(c1)N)nccn2)N,3.2426808669930325,1.0977528731742496,0.0,H2C2N
c1(cc2c(cc1)C(=O)c1c(C2=O)c(ccc1)N)N,4.447209704475972,1.9056523863924668,0.0,H5C7NO
c1(cc2c(cc1)C(=O)c1c(C2=O)c(ccc1)N)C,4.474624664862494,2.019727985183272,0.0,H11C15NO2
C(C(CC(=O)O)(C)C)C(=O)O,6.286870040224676,-0.5560539529909874,0.0,H12C7O4
c1(cc2c(cc1)nc(cn2)C)N,4.169660174262026,1.0485173353696156,0.0,H3C3N
Cc1cc(cs1)C(Cl)(Cl)Cl,5.056305837746185,2.909552798178629,0.0,H5C6SCl3
C(=O)(C)c1ccc(cc1)C(=O)C,5.77785466926216,1.6315433029991255,0.0,H5C5O
C1CCC(SC1)(CC)CC,4.612801269334886,-0.8750373812021279,0.0,H18C9S
Cc1cc(N)sc1,3.639271483070479,-0.6267518439512059,0.0,H7C5SN
c1(c(c2c(cc1)nccn2)CC)C,4.9462926863139725,1.146498007421178,0.0,H12C11N2
N(=C1CCCCC1)O,5.280336755613098,-0.5974507074446591,0.0,H11C6NO
S(CC)CC,4.77528400977244,-0.9815263155582216,0.0,H10C4S
c1c(c2c(cc1)ncc(n2)N(=O)=O)N(=O)=O,6.198084255325375,2.823226380869164,0.0,HC2NO
c1c(c2c(c(c1)NC)nccn2)NC,3.0329384916818527,1.088701109734393,0.0,H6C5N2
C1CC[C@H](S[C@H]1C)c1ccccc1,4.722892457569833,1.0177362506052303,0.0,H16C12S
c1cc(ccn1)c1ccnc(c1OC)C,4.932032239504769,0.9523957042452822,0.0,H12C12N2O
Cc1c(ccs1)F,4.805035660670546,-0.1437697699169802,0.0,H5C5SF
N(=O)(=O)c1c(C)cc(cc1C)C,5.438305941093494,1.7099549627742818,0.0,H11C9NO2
c1c(c2c(c(c1)C=C)nccn2)C=C,4.39308794908502,1.474831694347449,0.0,H5C6N
Cc1ccc(O)s1,4.102762037402135,-0.385682267735683,0.0,H6C5SO
C1C[C@H]([C@H](SC1)C)C(Cl)(Cl)Cl,4.76020197510079,2.6819690014832305,0.0,H11C7SCl3
n1(cccc1)c1ccccc1,4.482179832120528,-0.1759241016556187,0.0,H9C10N
c1cc(ccn1)c1ccnc(c1F)C,5.721952878474985,1.081040433056478,0.0,H9C11N2F
N(=O)(=O)c1c(O)c(N(=O)=O)cc(c1)N(=O)=O,6.463943478427245,2.8567493118840503,0.0,H3C6N3O7
S(c1c2c(ccc1)cccc2)c1ccccc1,4.374315599050169,0.6500560590990063,0.0,H12C16S
c1cc(N)sc1N,2.980150219276402,-0.5218454257214034,0.0,H6C4SN2
c1c(c2c(cc1C=C)nccn2)C,4.801698891936757,1.3408918805795111,0.0,H10C11N2
O=c1oc2c(cc1)cccc2,5.222524556967619,1.1936532567011455,0.0,H6C9O2
C1CC[C@@](SC1)(C)C(=O)O,4.606436504878365,-0.4794544271557241,0.0,H12C7SO2
c1(c(n2c(c1)cccc2)C)c1ccccc1,3.5899427870950604,0.106330676835205,0.0,H13C15N
c12c([nH]cn2)ncnc1NC,4.552963692010598,-0.0238605592789098,0.0,H7C6N5
c1(cc2c(c(c1)N(=O)=O)nccn2)C,5.66604183037416,2.1579389413032914,0.0,H7C9N3O2
C1[C@H](C[C@H](SC1)C#C)C#C,4.96792053638419,0.8690830755927892,0.0,H10C9S
C(#N)c1c(C(=O)O)cccc1,6.119074883895882,1.4402188521758943,0.0,H5C8NO2
c1cc(ccn1)c1ccnc(c1O)O,4.839455786384496,0.9434070793809952,0.0,H4C5NO
c1c(c2c(cc1)nc(cn2)C)C#C,5.054451977862845,1.4049262696313236,0.0,H8C11N2
c1c(c2c(c(c1)C#C)nccn2)C,4.900268709501324,1.4113498460515983,0.0,H8C11N2
C#Cc1c(C)ccs1,4.626758818061353,0.5565321409681929,0.0,H6C7S
Cc1cc(C#N)cs1,5.197976560769893,0.5275254098683946,0.0,H5C6SN
C1C[C@H]([C@H](SC1)C)F,4.804171892437443,-0.8758786537859122,0.0,H11C6SF
N(COC)(C=O)C,5.533705118139187,-0.7792508174519752,0.0,H9C4NO2
C(CS)O,5.349048335286716,0.0065898853987165,0.0,H6C2SO
C#Cc1cc(C)sc1,4.716318530093849,0.272321353780717,0.0,H6C7S
c1(cc2c(cc1NC)nccn2)NC,3.89639465465516,0.9607864460245764,0.0,H6C5N2
C1C[C@H]([C@H](SC1)C)C#N,4.941494135642278,-0.591513588935777,0.0,H11C7SN
c1c(c2c(cc1)nc(cn2)N(=O)=O)C,5.447212890985247,2.477439342271828,0.0,H7C9N3O2
c1c(c2c(c(c1)C(=O)O)nccn2)C,5.325752732148976,1.5660533715796192,0.0,H4C5NO
c1(c(c2c(cc1)nccn2)C)OC,4.584157897280965,1.136952370972358,0.0,H10C10N2O
C1C[C@H]([C@H](SC1)C)c1ccccc1,4.649849494989757,-0.6506872030498925,0.0,H16C12S
[C@@H]1(C[C@H](CSC1)OC)OC,4.792107815197232,-0.8190748790970246,0.0,H14C7SO2
C1CC[C@@](SC1)(C)F,4.978501718372717,-0.924818134457746,0.0,H11C6SF
C1[C@H](C[C@H](SC1)C)C#N,4.990745469652756,-0.5914084904092305,0.0,H11C7SN
Cl[C@]12[C@H]([C@@]3([C@H]1[C@H]3C[C]Cl)Cl)C=C([C@@H]2Cl)Cl,4.673692185716936,2.2643196369404905,0.0,H7(C2Cl)5
C(N(=O)=O)(C)(C)C,5.631265396080925,1.5106135212459777,0.0,H9C4NO2
c1(c(c2c(cc1)nccn2)C=C)C,4.719254143166472,1.2693913952876756,0.0,H10C11N2
C1CCC(SC1)(NC)NC,3.984471223820583,-0.9895837532625592,0.0,H16C7SN2
c1(c(ccs1)N(=O)=O)C,5.411352711632935,1.8272443702204328,0.0,H5C5SNO2
S=c1[nH]c2c([nH]1)cccc2,4.507212449455983,0.327761876238219,0.0,H6C7SN2
c1cc(ccn1)c1c(cncc1C)C,5.47929100636029,0.6819705279318442,0.0,H6C6N
Cc1c(ccs1)N,3.689652274553373,-0.6473509322844619,0.0,H7C5SN