smiles,IE,EA,charge,formula_pretty
CC(C)(C)N1Oc2cccc(c2O1)C(=O)O,4.286897738578409,0.880422818446823,0.0,H13C11NO4
CC(C)(C)N1Oc2cccc(c2O1)N(=O)=O,4.510778153003775,2.03731299369756,0.0,H6C5NO2
C=Cc1ccc2c(c1)ON(C(C)(C)C)O2,4.032720506785699,0.3175355470208161,0.0,H15C12NO2
CC(C)(C)N1Oc2ccc(cc2O1)OCCOCCOC,3.837154788988846,-0.4456829337636008,0.0,H23C15NO5
CC(=O)c1cc(cc2c1ONO2)C(C)(C)C,4.42608076424367,1.046043404241209,0.0,H15C12NO3
CC(=O)c1ccc2c(c1OCCOC)ONO2,4.485740120604168,0.94211823939404,0.0,H13C11NO5
CC(=O)c1cccc2c1ON(c1ccccc1)O2,4.272029928238771,1.0631718819291565,0.0,H11C14NO3
CC(=O)c1ccc2c(c1)ON(OCCOCCOCCOC)O2,4.462519658981909,0.9658562996315596,0.0,H21C15NO7
Cc1ccc2c(c1)ON(OCCOCCOC)O2,4.107640815390914,-0.2662504372841794,0.0,H17C12NO5
COCCON1Oc2ccc(cc2O1)C(Br)(Br)Br,4.402309244871139,2.7926053208007944,0.0,H10C10Br3NO4
COCCON1Oc2cccc(c3ccccc3)c2O1,4.196347809732833,0.4119934442038357,0.0,H15C15NO4
CNc1cc(cc2c1[nH]s[nH]2)N(C)C,3.202293488886062,2.261118824442383,0.0,H14C9SN4
COCCOCCOCCOn1c2c(cccc2[nH]s1)F,4.095231504602998,1.5243902013549817,0.0,H19C13SN2O4F
CN(C)c1cc(cc2c1[nH]s[nH]2)c1ccccc1,3.3800280793671846,0.2855309132697585,0.0,H15C14SN3
CC(=O)c1ccc2c(c1)ON(C(C)(C)C)O2,4.293280821735243,0.9013058167525744,0.0,H15C12NO3
CC(=O)c1cccc(c1[O])O[N]N(C)C,3.6278968525017263,2.438462730196625,0.0,H12C10N2O3
CN(C)c1ccc2c(c1)[nH]sn2c1ccccc1,2.9508190441170883,2.252694707900082,0.0,H15C14SN3
CC(C)(C)N1Oc2ccc(cc2O1)N,3.5288301006490657,-0.55481131793058,0.0,H7C5NO
COCCOCCOc1ccc(c2c1[nH]s[nH]2)N,3.1958565843320685,1.796242342630285,0.0,H17C11S(NO)3
CN(C)c1cc2c(c(c1)OCCOCCOCCOC)[nH]s[nH]2,2.832326063560322,2.029020928553655,0.0,H25C15SN3O4
CC(C)(C)c1ccc2c(c1)ON(C(C)(C)C)O2,3.9781548357619614,-0.5625297235586912,0.0,H21C14NO2
COCCOCCON1Oc2ccccc2O1,4.282412301139265,-0.2778932959030498,0.0,H15C11NO5
CC(=O)c1c(ccc2c1ONO2)OCCOCCOC,4.281327704362047,1.0897125922470878,0.0,H17C13NO6
CN(C)n1c2cccc(c3ccccc3)c2[nH]s1,3.445634002031148,0.2978649410375511,0.0,H15C14SN3
CN(C)c1ccc2c(c1c1ccccc1)[nH]s[nH]2,3.242093903836212,0.1428651270776755,0.0,H15C14SN3
COCCOCCOc1cc(cc2c1[nH]s[nH]2)OCCOC,3.0969990308745765,2.1413275642713416,0.0,H22C14SN2O5
CC(=O)c1cc(c2c(c1)ONO2)C(C)(C)C,4.55232280133132,0.95640490437072,0.0,H15C12NO3
CN(C)c1cc2c(cc1C(Cl)(Cl)Cl)[nH]s[nH]2,3.4484231008405914,3.522353546397062,0.0,H10C9S(NCl)3
CC(C)(C)c1cccc2c1ON(C(C)(C)C)O2,4.009101240566087,-0.6212305562061373,0.0,H21C14NO2
CC(=O)c1ccc2c(c1c1ccccc1)ONO2,4.719797048366308,1.0199913396223566,0.0,H11C14NO3
CNn1c2ccc(cc2[nH]s1)c1ccccc1,3.496841192356078,0.3709094900455967,0.0,H13C13SN3
CC(=O)c1ccc(c2c1ONO2)N(C)C,4.075696158249775,0.8396379146775872,0.0,H12C10N2O3
CC(=O)c1ccc2c(c1C(C)(C)C)ONO2,4.459146807957586,0.8194456310862734,0.0,H15C12NO3
Cc1cccc2c1ON(OCCOC)O2,4.17484353471591,-0.410039479471743,0.0,H13C10NO4
COCCOCCON1Oc2ccc(cc2O1)N,3.4762203512415,-0.417429514449759,0.0,H16C11N2O5
CCc1cccc2c1ON(C(C)(C)C)O2,4.029908351765334,-0.5417317417835874,0.0,H17C12NO2
CCc1cccc2c1ON(N(C)C)O2,4.320474640649627,-0.4656793715752427,0.0,H7C5NO
C=Cc1cc(cc2c1ONO2)OCCOC,4.084074491640058,0.5915737774099399,0.0,H13C11NO4
CC(=O)c1cccc2c1ON(OCCOCCOC)O2,4.528713665914983,1.0622594080319687,0.0,H17C13NO6
CC(=O)c1cc(cc2c1ONO2)OCCOCCOC,4.264092623359465,1.1326844504488691,0.0,H17C13NO6
COCCOCCON1Oc2cccc(c2O1)N,3.5829932282300434,-0.610400139712874,0.0,H16C11N2O5
COCCOCCON1Oc2cccc(c2O1)C(Br)(Br)Br,4.443454040965298,2.811105959751876,0.0,H14C12Br3NO5
COCCOCCON1Oc2cccc(c3ccccc3)c2O1,4.193138256936072,0.390905089746957,0.0,H19C17NO5
COCCOCCOc1ccc2c(c1)ON(OCCOC)O2,3.947348825373047,-0.247037110448582,0.0,H21C14NO7
CNc1ccc2c(c1)ON(OCCOC)O2,3.2535702723267605,-0.4662773743933939,0.0,H7C5NO2
CCN1Oc2ccc(cc2O1)c1ccccc1,4.09286776325971,0.2691287264693529,0.0,H13C14NO2
CN(C)c1cccc2c1ON(OCCOC)O2,3.9027348145769793,-0.6473466192786872,0.0,H16C11(NO2)2
CN1Oc2cccc(c3ccccc3)c2O1,4.208955230276478,0.3560030422682758,0.0,H11C13NO2
COCCOCCON1Oc2ccc(cc2O1)C(Cl)(Cl)Cl,4.461459593266772,2.6813997692675917,0.0,H14C12NCl3O5
COCCOCCOc1cccc2c1n(N)s[nH]2,3.4684718280564995,1.8203449483349687,0.0,H17C11S(NO)3
CC(=O)c1c(ccc2c1ONO2)c1ccccc1,4.481828652887634,1.1039359064030578,0.0,H11C14NO3
CC(=O)c1cc(cc2c1ONO2)c1ccccc1,4.427281156347453,1.1289082477975172,0.0,H11C14NO3
CC(=O)c1cc(c2c(c1)ONO2)OCCOCCOC,4.639466139762225,1.0019508479104844,0.0,H17C13NO6
CC(=O)c1ccc(c2ccccc2)c2c1ONO2,4.542001039074966,1.2439343810488936,0.0,H11C14NO3
CN(C)c1cccc2c1ON(OCCOCCOCCOC)O2,3.912407930916379,-0.6259379378519951,0.0,H24C15(NO3)2
CC(=O)c1cc(c2ccccc2)c2c(c1)ONO2,4.6246997598587765,1.011819810025918,0.0,H11C14NO3
CNc1cccc2c1ON(OCCOCCOC)O2,3.430022518177429,-0.7265897881938144,0.0,H18C12N2O5
Cc1ccc2c(c1)ON(C(C)(C)C)O2,3.9965230341636926,-0.3881845966592663,0.0,H15C11NO2
CN(C)c1ccc2c(c1)ON(OCCOC)O2,3.224956138908601,-0.3708774653590807,0.0,H16C11(NO2)2
CN(C)c1ccc2c(c1)n(N(C)C)s[nH]2,3.1630633510700137,1.4965144978137688,0.0,H16C10SN4
CN(C)c1cccc2c1[nH]sn2c1ccccc1,3.203660975215462,2.214299989494612,0.0,H15C14SN3
CN(C)c1cc2c(cc1c1ccccc1)[nH]s[nH]2,3.2645302966389864,2.281455894358805,0.0,H15C14SN3
CC(=O)c1ccc2c(c1N(C)C)ONO2,3.9948847047686287,0.8464413048655843,0.0,H12C10N2O3
CC(=O)c1cc(cc2c1ONO2)OCCOCCOCCOC,4.273429360736918,1.2001220883699717,0.0,H21C15NO7
COCCOCCOCCON1Oc2ccccc2O1,4.290458220262371,-0.2849498907475207,0.0,H19C13NO6
COCCON1Oc2cccc(c2O1)N(=O)=O,4.653979146305209,2.113471703274263,0.0,H10C9(NO3)2
CC(=O)c1ccc2c(c1OCCOCCOC)ONO2,4.504270585931954,0.9471151256744634,0.0,H17C13NO6
CC(=O)c1cc(cc2c1ONO2)OCCOC,4.2109556452247485,1.1380500128921995,0.0,H13C11NO5
CN(C)n1c2cc(ccc2[nH]s1)c1ccccc1,3.44314364338934,1.9145400488538145,0.0,H15C14SN3
CNc1cc(cc2c1ONO2)Cl,4.107651264560991,1.17194847732535,0.0,H7C7N2ClO2
CC(=O)c1ccc(c2c1ONO2)OCCOCCOCCOC,4.566750293384393,0.9592420203931398,0.0,H21C15NO7
COCCOCCOc1cccc2c1ON(Cl)O2,5.205558732604549,3.8485606446280154,0.0,H14C11NClO5
CC(=O)c1c(ccc2c1ONO2)OCCOC,4.283447125578823,1.09027000928254,0.0,H13C11NO5
CC(=O)c1ccc(c2c1ONO2)OCCOC,4.574634429945581,0.9588166574845672,0.0,H13C11NO5
CC(=O)c1ccc(c2c1ONO2)OCCOCCOC,4.568882901241159,0.9470274941355457,0.0,H17C13NO6
COCCOCCOCCON1Oc2cccc(c2O1)C(=O)O,4.575261260504339,0.9701353387223208,0.0,H19C14NO8
CC(=O)c1ccc2c(c1)ON(OCCOC)O2,4.451930923116015,0.9710290476446972,0.0,H13C11NO5
COCCOCCOCCON1Oc2ccc(cc2O1)C(Cl)(Cl)Cl,4.467994850646937,2.684472533155349,0.0,H18C14N(ClO2)3
CC(C)(C)N1Oc2cccc(c2O1)O,4.09269264168106,-0.4143171906529459,0.0,H13C10NO3
CCc1c(ccc2c1ONO2)N(C)C,3.690816426538368,-0.4232035197623189,0.0,H7C5NO
CC(=O)c1cc(cc2c1ONO2)N(C)C,3.720761457852496,1.0268139601008444,0.0,H12C10N2O3
COCCON1Oc2cccc(c2O1)C(Br)(Br)Br,4.438509928493295,2.7548713383381256,0.0,H10C10Br3NO4
CC(=O)c1ccc2c(c1)ON(OCCOCCOC)O2,4.453339237401087,0.9457293614628726,0.0,H17C13NO6
CN(C)c1c(ccc2c1[nH]s[nH]2)C(Cl)(Cl)Cl,3.577584946638672,3.046414205711335,0.0,H10C9S(NCl)3
CC(=O)c1c(ccc2c1ONO2)N(C)C,3.727931475184596,0.9408812071611464,0.0,H12C10N2O3
CC(=O)c1cc(c2c(c1)ONO2)N(C)C,4.089382191793993,0.9621901398182672,0.0,H12C10N2O3
CC(=O)c1c(ccc2c1ONO2)C(C)(C)C,4.473052889077371,0.9096698777662824,0.0,H15C12NO3
CC(=O)c1cc(c2c(c1)ONO2)OCCOC,4.642301606776163,1.0147964932417382,0.0,H13C11NO5
C#CN1Oc2ccc(cc2O1)OCCOCCOC,4.153414539994264,3.585769088703819,0.0,H15C13NO5
C=Cc1cccc2c1ON(C(C)(C)C)O2,4.106109029454819,0.443955209140404,0.0,H15C12NO2
CNc1c(ccc2c1[nH]s[nH]2)c1ccccc1,3.2392859584157123,2.531683263170271,0.0,H13C13SN3
COCCOCCOc1cccc2c1n(c1ccccc1)s[nH]2,3.3005678615605576,2.1167608711344656,0.0,H20C17SN2O3
CNc1cc2c(cc1c1ccccc1)[nH]s[nH]2,3.0636469302131446,2.534955780383461,0.0,H13C13SN3
CC(=O)c1cccc2c1ON(OCCOC)O2,4.522066888117115,1.074313199363678,0.0,H13C11NO5
COCCON1Oc2cccc(c2O1)C(F)(F)F,4.473593116681149,0.4299808383344499,0.0,H10C10NO4F3
CNn1c2cc(ccc2[nH]s1)N(C)C,3.2117363397788723,1.605809391157527,0.0,H14C9SN4
CNc1ccc2c(c1)[nH]sn2c1ccccc1,2.95313479002798,2.281550649838755,0.0,H13C13SN3
c1ccc(cc1)c1cccc2c1n(C(F)(F)F)s[nH]2,4.029215939053392,2.9497506816493115,0.0,H9C13SN2F3
COCCOCCOc1cccc2c1n(C(F)(F)F)s[nH]2,4.045646014799422,2.810939654651156,0.0,H15C12SN2(OF)3
CNc1cc2c(c(c1)OCCOCCOC)[nH]s[nH]2,2.93143311002641,1.767128414999752,0.0,H19C12S(NO)3
CC(=O)c1cccc2c1ON(C(C)(C)C)O2,4.234113656724366,0.9799947441984842,0.0,H15C12NO3
CC(=O)N1Oc2cccc(c3ccccc3)c2O1,4.496641240444296,0.5971491504984443,0.0,H11C14NO3
CC(=O)c1cc2c(cc1N(C)C)ONO2,3.844100225325383,0.8010959962935886,0.0,H12C10N2O3
CCN1Oc2cccc(c3ccccc3)c2O1,4.176701775629772,0.3501696345025267,0.0,H13C14NO2
CCN1Oc2ccc(cc2O1)OCCOC,3.8140926812935514,-0.2666346620229887,0.0,H15C11NO4
COCCON1Oc2ccc(cc2O1)C(Cl)(Cl)Cl,4.439680943143321,2.682161002283101,0.0,H10C10NCl3O4
Cc1ccc2c(c1)ON(OCCOCCOCCOC)O2,4.123193745790195,-0.2764471523536485,0.0,H21C14NO6
C#Cc1cccc2c1ON(C(C)(C)C)O2,4.223697702256322,0.5017519734879898,0.0,H13C12NO2
CC(C)(C)N1Oc2ccc(cc2O1)N(=O)=O,4.532036638474528,1.9922382506352732,0.0,H6C5NO2
C#Cc1ccc(c2c1ONO2)OCCOC,4.612460226338589,0.4834753223491135,0.0,H11C11NO4
CC(C)(C)c1cccc2c1ON(N(=O)=O)O2,4.348640433863329,3.153891522842605,0.0,H6C5NO2
COCCOCCOc1ccc(c2c1ONO2)F,4.660154394352139,0.1455173471891613,0.0,H14C11NO5F
c1ccc(cc1)c1c(ccc2c1ONO2)C(Cl)(Cl)Cl,4.684373636207601,3.166535093712446,0.0,H8C13NCl3O2
CN1Oc2ccc(cc2O1)c1ccccc1,4.116380624805606,0.2750718859038898,0.0,H11C13NO2
CNc1ccc2c(c1OCCOCCOCCOC)ONO2,3.6332575767642994,-0.1687443508184514,0.0,H11C7NO3
CC(C)(C)c1c(ccc2c1ONO2)OCCOCCOC,4.011587166468962,-0.1882458870262779,0.0,H23C15NO5
COCCOCCOCCOc1c(ccc2c1ONO2)N(=O)=O,4.805733662602142,1.9769271042692709,0.0,H18C13(NO4)2
CCc1ccc2c(c1)ON(C(C)(C)C)O2,3.9999482126782815,-0.4717812305192637,0.0,H17C12NO2
COCCOCCOCCOc1ccc(c2c1ONO2)C(F)(F)F,4.702269983770384,0.3938654951140052,0.0,H18C14N(O2F)3
CC(C)(C)N1Oc2ccc(cc2O1)C(Br)(Br)Br,4.29299254703219,3.066688852757216,0.0,H12C11Br3NO2
COCCOCCON1Oc2cccc(c2O1)C(Cl)(Cl)Cl,4.454628877415962,2.802082509749744,0.0,H14C12NCl3O5
C#Cc1cc(cc2c1ONO2)OCCOC,4.200175485436921,0.6427298701943074,0.0,H11C11NO4
CCc1ccc(c2c1ONO2)OCCOC,4.413994760072091,-0.304888240416767,0.0,H15C11NO4
CCc1cccc2c1ON(OCCOCCOC)O2,4.188695266538707,-0.4333374826514045,0.0,H19C13NO5
C=CN1Oc2cccc(c3ccccc3)c2O1,4.218459388413612,0.3926484333147528,0.0,H11C14NO2
CC(=O)c1c(ccc2c1ONO2)OCCOCCOCCOC,4.300116171698027,0.9022127259173433,0.0,H21C15NO7
CC(C)(C)N1Oc2ccc(cc2O1)c1ccccc1,4.028779275251145,0.2437908545522078,0.0,H17C16NO2
C=Cc1c(ccc2c1ONO2)OCCOCCOCCOC,4.084695327526424,0.4800770422822098,0.0,H21C15NO6
CC(C)(C)N1Oc2ccc(cc2O1)N(C)C,3.3573800037607726,-0.6555483045289292,0.0,H9C6NO
CC(C)(C)N1Oc2ccc(cc2O1)O,3.928793110602419,-0.429954639601783,0.0,H13C10NO3
CC(C)(C)c1c(ccc2c1ONO2)O,4.104266445968824,-0.1730944660397653,0.0,H13C10NO3
COCCOCCOc1ccc2c(c1)ON(Cl)O2,4.833482373325387,3.814301253829035,0.0,H14C11NClO5
c1cc(c2c(c1)ON(C(Cl)(Cl)Cl)O2)N(=O)=O,5.164041001780424,2.208824378788995,0.0,H3C7N2Cl3O4
Cc1c(ccc2c1ONO2)c1ccccc1,4.28734751282318,0.13558162466652,0.0,H11C13NO2
CC(C)(C)c1ccc(c2c1ONO2)C(F)(F)F,4.630589067962864,0.3932328739771038,0.0,H12C11NO2F3
CNc1ccc2c(c1)ON(OCCOCCOC)O2,3.2599884881034087,-0.4774929136023274,0.0,H18C12N2O5
CN(C)c1cccc2c1ON(OC)O2,3.897361589411594,-0.5887399325787555,0.0,H12C9N2O3
COc1c(ccc2c1ONO2)c1ccccc1,4.370057599798747,0.2282502100912098,0.0,H11C13NO3
CC(C)(C)N1Oc2cccc(c2O1)Cl,4.272807781975279,1.1885410921146105,0.0,H12C10NClO2
CC(C)(C)N1Oc2ccc(cc2O1)C(=O)O,4.332848748066317,0.7859698138687237,0.0,H13C11NO4
C=Cc1ccc(c2c1ONO2)OCCOCCOCCOC,4.414483269721677,0.4313462212208834,0.0,H21C15NO6
c1ccc(cc1)c1cc(c2c(c1)ONO2)N(=O)=O,4.686201239832007,2.1583543421234936,0.0,H4C6NO2
CC(C)(C)c1c(ccc2c1ONO2)N(C)C,3.791497790339781,-0.2225274550895846,0.0,H9C6NO
CC(C)(C)N1Oc2ccc(cc2O1)OC,3.8007984209303687,-0.369573112164653,0.0,H15C11NO3
CC(C)(C)N1Oc2ccc(cc2O1)C#N,4.422888596801931,0.5910697518316739,0.0,H12C11(NO)2
c1cc2c(cc1NC)C(=O)c1c(C2=O)cc(cc1)C,4.325463581205986,1.973701276348584,0.0,H13C16NO2
c1cc2c(cc1)C(=O)c1c(C2=O)cc(c(c1)CC)C,5.483067946437222,2.104949642076099,0.0,H14C17O2
c1cc2c(cc1)C(=O)c1c(C2=O)cc(cc1OC)C,5.051090536564152,2.115522652483924,0.0,H12C16O3
c1(cc2c(cc1)C(=O)c1c(C2=O)cc(cc1)C)CC,5.552212921823957,2.113025773994741,0.0,H14C17O2
C1C[C@H]([C@H](SC1)C(=O)O)C(=O)O,4.99105224535524,0.2697890787254438,0.0,H10C7SO4
[C@@H]1(CC[C@H](SC1)c1ccccc1)C,4.578856861194799,1.047842144745664,0.0,H16C12S
c1(cc2c(cc1)ncc(n2)CC)CC,5.236159457595568,1.1437270096172143,0.0,H7C6N
c1(c(c2c(cc1)nccn2)NC(=O)C)C,4.758816254421253,1.3601903055801814,0.0,H11C11N3O
c1(cc2c(cc1)ncc(n2)C)OC,4.753590248284672,1.145091440106262,0.0,H10C10N2O
Cc1cscc1N(C)C,3.644027170366462,-0.6887572597064717,0.0,H11C7SN
Cc1cscc1N,3.815128158804873,-0.6744775554056104,0.0,H7C5SN
c1cc(c(cn1)C)c1ccnc(c1)N,4.512692590871302,0.7810570651850868,0.0,H11C11N3
C1[C@H]([C@H](CSC1)C)N,3.8128408433454752,-0.7148648355454497,0.0,H13C6SN
c1(c(c2c(cc1)nccn2)CC)CC,4.909568061156824,1.141961352715589,0.0,H7C6N
C1[C@H]([C@H](CSC1)O)C,4.638483291787997,-0.5033890814833284,0.0,H12C6SO
[C@@H]1(CC[C@H](SC1)N)C,4.352320827952644,-0.73331429802638,0.0,H13C6SN
C1[C@H]([C@H](CSC1)C)NC,4.239488024764432,-0.7177003624296048,0.0,H15C7SN
[C@@H]1(C[C@H](CSC1)C)OC,4.74466427491061,-0.8519110056608041,0.0,H14C7SO
c1cc2c(cc1)C(=O)c1c(C2=O)cc(c(c1)NC(=O)C)C,4.952311400878534,2.275014600605209,0.0,H13C17NO3
c1(cc(ccn1)c1ccnc(c1)C)C,5.662962742560557,1.004178009886891,0.0,H6C6N
c1cc2c(cc1O)C(=O)c1c(C2=O)cc(cc1)C,5.25218159660435,2.09317375515966,0.0,H10(C5O)3
c1cc2c(cc1CC)C(=O)c1c(C2=O)cc(cc1)C,5.555104702799872,2.108128892266541,0.0,H14C17O2
[C@@H]1(C[C@H](CSC1)C)C=C,4.644258752910536,-0.6079581547513953,0.0,H14C8S
c1cc2c(cc1)[C](c1c(C2=O)cc(cc1[NH]=C)C)O,2.8313845442367893,1.8870820373391328,0.0,H13C16NO2
C1[C@H]([C@H](CSC1)C)NC(=O)C,4.833540774399443,-0.5526933606837701,0.0,H15C8SNO
c1cc2c(cc1)C(=O)c1c(C2=O)cc(cc1C(=O)O)C,5.996376375800173,2.588143700946239,0.0,H5(C4O)2
c1cc2c(cc1)nc(c(n2)C)N(C)C,4.202200502200503,0.9285283409513796,0.0,H13C11N3
c1cc2c(cc1)C(=O)c1c(C2=O)cc(c(c1)OC)OC,4.722917826745833,2.1281148836293142,0.0,H3C4O
c1cc2c(cc1N)C(=O)c1c(C2=O)cc(cc1)C,4.502225998743233,1.999802650714264,0.0,H11C15NO2
c1cc2c(cc1)nc(c(n2)C)C#C,5.313350831025309,1.4372896120090446,0.0,H8C11N2
C1[C@H]([C@H](CSC1)OC)OC,4.566323722288507,-0.7300463577652407,0.0,H14C7SO2
C1[C@H]([C@H](CSC1)CC)C,4.58315511697001,-0.8039385332143865,0.0,H16C8S
[C@@H]1(C[C@H](CSC1)CC)C,4.597691089920408,-0.8634722954397147,0.0,H16C8S
c1cc(ccn1)c1cc(nc(c1)NC)NC,3.615734417000204,0.7569021836876346,0.0,H7(C3N)2
c1cc2c(cc1C)C(=O)c1c(C2=O)cc(cc1)OC,5.117512751765025,2.101983187616133,0.0,H12C16O3
C1[C@H]([C@H](CSC1)F)C,4.889229881014762,-0.7838746928049658,0.0,H11C6SF
c1(cc2c(c(c1)C=C)nccn2)C=C,4.674190039753375,1.4772256022384682,0.0,H5C6N
c12cc3c(cc1N([O])OON2[O])nccn3,4.346263288190675,3.085222156188684,0.0,HC2NO
c1cc2c(cc1O)C(=O)c1c(C2=O)cc(cc1)O,5.178756055572739,2.093409827518917,0.0,H4C7O2
c1cc2c(cc1)C(=O)c1c(C2=O)cc(cc1C#N)C,5.997844419072498,2.364408510956855,0.0,H9C16NO2
c1c(c(cs1)C)C#C,4.869380014597118,0.2865936157664692,0.0,H6C7S
c1(cc2c(cc1)C(=O)c1c(C2=O)cc(cc1)C)C#N,5.75126008039806,2.3987387084904186,0.0,H9C16NO2
[C@@H]1(C[C@H](CSC1)C)c1ccccc1,4.679834755619231,-0.5855968408708576,0.0,H16C12S
c1c(c2c(cc1)nc(cn2)N(C)C)N(C)C,3.478724604015588,0.92252092183262,0.0,H4C3N
c1c(c2c(cc1)ncc(n2)C)c1ccccc1,4.710729507770884,1.1834877585330106,0.0,H12C15N2
c1(cc2c(cc1c1ccccc1)nccn2)C,4.937972656034253,1.2385409595968668,0.0,H12C15N2
c1(c(c2c(cc1)nccn2)C(=O)O)C,5.405031520765624,1.4164308155064649,0.0,H4C5NO
c1(cc2c(cc1C(=O)O)nccn2)C,5.482411749364109,1.6095247736462626,0.0,H4C5NO
c1c(c2c(cc1)ncc(n2)CC)CC,5.018945742419964,1.1085727697478434,0.0,H7C6N
c1c(c2c(c(c1)CC)nccn2)CC,4.833801149252031,1.1183916846835928,0.0,H7C6N
[C@@H]1(C[C@H](CSC1)O)C,4.786103715870558,-0.803920960103278,0.0,H12C6SO
Cc1ccsc1OC,4.0038799855334215,-0.1865124511226894,0.0,H8C6SO
[C@@H]1(C[C@H](CSC1)C)C,4.6568478166533165,-0.8780459425528533,0.0,H14C7S
c1cc(c(cn1)NC(=O)C)c1ccnc(c1)C,5.16644898884042,1.0931353407955613,0.0,H13C13N3O
[C@@H]1(C[C@H](CSC1)C)F,4.900285357425309,-0.8246031492839392,0.0,H11C6SF
[C@@H]1(C[C@H](CSC1)C)N(C)C,3.8107694475016616,-0.8367447027689194,0.0,H17C8SN
c1cc2c(cc1)C(=O)c1c(C2=O)cc(cc1C=C)C=C,5.106868961827422,2.2005699306588213,0.0,H6C9O
c1(cc2c(cc1)ncc(n2)NC(=O)C)NC(=O)C,4.835644676969968,1.496229820475128,0.0,H6C6N2O
c1(cc2c(cc1)nc(cn2)C#C)C#C,5.187862843147377,1.709966152092966,0.0,H3C6N
c1cc2c(cc1)C(=O)c1c(C2=O)cc(c(c1)C(=O)O)C,5.873625553814781,2.3205715538839287,0.0,H5(C4O)2
c1(cc2c(cc1)ncc(n2)C=C)C=C,4.896386630072447,1.411191927505206,0.0,H5C6N
c1c(c2c(cc1)ncc(n2)NC(=O)C)NC(=O)C,4.548487155415932,1.3185072465435952,0.0,H6C6N2O
c1c(c2c(cc1)ncc(n2)N)N,3.768055713767899,0.9290562363581558,0.0,H2C2N
c1(cc2c(cc1)nc(cn2)N(C)C)C,4.094787997147796,0.9130117568016431,0.0,H13C11N3
c1cc2c(cc1)C(=O)c1c(C2=O)cc(cc1OC)OC,4.960874306359619,2.0585793650257984,0.0,H3C4O
C(=C)(C#C)C,5.258755034277419,0.3931316938866076,0.0,H6C5
c1cc2c(cc1)C(=O)c1c(C2=O)cc(cc1C)O,5.215568872824951,2.065429501655308,0.0,H10(C5O)3
c1cc2c(cc1)C(=O)c1c(C2=O)cc(cc1C)F,5.745086984768568,2.1732585830628524,0.0,H9C15O2F
c1c(c2c(cc1N)nccn2)N,3.8194917681572407,0.9933420749235666,0.0,H2C2N
c1(cc2c(cc1C=C)nccn2)C,4.879018401050052,1.3280616341777205,0.0,H10C11N2
c1cc2c(cc1)C(=O)c1c(C2=O)cc(c(c1)C)OC,5.020517017522797,2.094280540104228,0.0,H12C16O3
c1cc2c(cc1)C(=O)c1c(C2=O)cc(cc1O)O,5.120864628259005,2.07730600810246,0.0,H4C7O2
C1(=CC=C(SS1)C(C)C)C(C)C,3.783999682634749,1.8514076627558096,0.0,H8C5S
c1(cc2c(cc1)C(=O)c1c(C2=O)cc(cc1)C#C)C#C,5.492769855145161,2.373541465001472,0.0,H4C9O
c1(cc2c(cc1)C(=O)c1c(C2=O)cc(cc1)C)N,4.4980493207091055,2.006134051288973,0.0,H11C15NO2
C1=[S][CH]C2=C=C[CH][CH][CH][CH][CH][CH][CH][CH]C=C=C12,2.977522598253563,3.518429477074824,0.0,H12C16S
c1(cc2c(cc1)nc(cn2)C)NC,3.968161234624495,1.0420332979771048,0.0,H11C10N3
c1(cc2c(cc1)nc(cn2)C)N(=O)=O,5.651877281926863,2.253322738471616,0.0,H7C9N3O2
c1(cc2c(cc1)ncc(n2)C)N(=O)=O,5.652554818172211,2.278605292370776,0.0,H7C9N3O2
c1cc(ccn1)c1c(cnc(c1)C(Cl)(Cl)Cl)C(Cl)(Cl)Cl,5.851446599737392,2.8577854397532065,0.0,H3C6NCl3
c1cc2c(cc1)C(=O)c1c(C2=O)cc(cc1C)OC,5.060680541174952,2.0151587149135595,0.0,H12C16O3
[C@@H]1(C[C@H](CSC1)NC(=O)C)NC(=O)C,4.934803857731458,-0.6383630448493931,0.0,H16C9S(NO)2
c1(cc2c(cc1)ncc(n2)N(=O)=O)N(=O)=O,6.367913949675858,2.7407927289037617,0.0,HC2NO
c1c(c2c(cc1)nc(cn2)C)c1ccccc1,4.722121183550916,1.1885782465375088,0.0,H12C15N2
c1(cc2c(cc1C=C)nccn2)C=C,4.9130071283685535,1.436127500881048,0.0,H5C6N
c1(cc2c(cc1N(=O)=O)nccn2)C,5.713999725679605,2.240065099192725,0.0,H7C9N3O2
c1cc2c(cc1)C(=O)c1c(C2=O)cc(c(c1)C#C)C#C,5.428619526550028,2.3717536661948544,0.0,H4C9O
c1(cc2c(cc1N)nccn2)C,4.244710289332579,1.0427217922493583,0.0,H3C3N
c1(cc2c(c(c1)C=C)nccn2)C,4.695857017075104,1.3079131690825307,0.0,H10C11N2
c1(cc2c(cc1NC)nccn2)C,4.050084414640514,1.1167489579307586,0.0,H11C10N3
c1(cc2c(cc1)C(=O)c1c(C2=O)cc(cc1)N(C)C)C,4.1903417130903104,1.931610049273877,0.0,H15C17NO2
c1cc(c(cn1)C=C)c1ccnc(c1)C,5.068490660052339,0.9749916183478492,0.0,H12C13N2
C=Cc1cscc1C,4.486157170440128,0.2879563346592477,0.0,H8C7S
C1C[C@](CSC1)(CC)C,4.650244266858499,-0.9400987251596232,0.0,H16C8S
C1[C@H]([C@H](CSC1)CC)CC,4.574025610605167,-0.8531696083540736,0.0,H18C9S
c12c(sc(n2)N)cccc1C,4.238163257586711,0.1078994267241797,0.0,H8C8SN2
C1C[C@](CSC1)(NC(=O)C)C,4.83619645580402,-0.8456518785191292,0.0,H15C8SNO
c12c([CH][S]=C1)cccc2,4.078239690655755,0.6556981789995917,0.0,H6C8S
c1cc2c(cc1)C(=O)c1c(C2=O)cc(c(c1)CC)CC,5.486225862908759,2.094034687973908,0.0,H8C9O
c1cc(ccn1)c1c(cncc1F)F,5.824169171135145,1.2091883092194622,0.0,H3C5NF
c1(cc2c(cc1)C(=O)c1c(C2=O)cc(cc1)F)F,5.889928443551616,2.325577161414549,0.0,H3C7OF
c12c(cccc2)[nH]cc1C,4.017331266469773,-0.4664664744581386,0.0,H9C9N
c1(cc2c(cc1NC(=O)C)nccn2)C,4.868605793582537,1.3062365423880693,0.0,H11C11N3O
c1cc(ccn1)c1cc(nc(c1)C(Cl)(Cl)Cl)C(Cl)(Cl)Cl,5.90779644229915,1.6094059415278026,0.0,H3C6NCl3
C(N(=O)=O)(N(=O)=O)(N(=O)=O)F,8.04099004111922,3.2482038717731485,0.0,CN3O6F