smiles,IE,EA,charge,formula_pretty
c12c(c(=O)[nH]c(n1)N)[nH]cn2,4.378746488547767,-0.4265344706967879,0.0,H5C5N5O
[C@H]1(C(=O)CCCC1)O,5.233754809374295,0.5311078538576113,0.0,H5C3O
O=c1c2c(c3c(o1)cccc3)oc1c2cccc1,4.767418714372615,1.1086522678102484,0.0,H8(C5O)3
O=C1N(N=C([C@@H]1C(=O)c1ccccc1)C)c1ccccc1,4.6202274491894055,1.29431374393389,0.0,H14C17(NO)2
C(C[SiH](C)C)CCCC,5.442885565292817,-0.7714804271949105,0.0,Si(H5C2)4
[Si](OCC)(OCC)(OCC)OCC,6.021306460641062,-0.9891258618648862,0.0,SiH20(C2O)4
Cc1c2c(cccc2C)ccc1,4.267781254334841,0.1783674331942166,0.0,HC
N([N]c1ccc(cc1)C)([O])c1ccc(cc1)OC,4.06447485839235,1.90545934883412,0.0,H7C7NO
c12c(c(=O)[nH]c(=O)[nH]1)[nH]cn2,5.015084112350086,0.4496960954744282,0.0,H4C5(N2O)2
S(=O)(=O)(CC)c1cc2c(cc1)cccc2,4.922583287823363,0.862413102813298,0.0,H12C12SO2
c12c3c(ccc1scc2)scc3,4.306769953700131,0.2882055256319291,0.0,H3C5S
CN1C2=NCCCN2CCC1,3.76395552693757,-0.916158465294211,0.0,H15C8N3
c12c(c3c(cc1cccc2)cccc3)C,3.879061033068501,0.9129319703039074,0.0,H4C5
c1(c2ccccc2)[nH]c2c(n1)cccc2,4.475606960449658,0.5879206790574245,0.0,H10C13N2
c1(C(=O)CCC)ccc(cc1)F,5.570598233463533,0.9571703796442308,0.0,H11C10OF
c1(nnc(nn1)SC)SC,5.054170193097525,2.295238190884993,0.0,H3C2SN2
N1([C@@H]2CCC[C@H]1CCC2)SC,3.6112912470031007,0.7554281348580845,0.0,H17C9SN
c12c(ccc(c1)C(=O)C)cccc2,4.742979427657337,1.1254253648199666,0.0,H10C12O
[C@H]12C(=O)C=C([C@@H](C2)C(=O)C=C1C)C,5.397498060030193,1.4211704997902417,0.0,H12C11O2
c1(ccc(cc1)N(=O)=O)CN(C)C,4.208321839059499,2.0207006969154464,0.0,H12C9(NO)2
N(C)(C)c1cc2c(cc1)N=c1c(=[S]2)cc(c(c1)C)N.[Cl],3.99286131796689,2.871455347821757,0.0,H16C15SN3Cl
C(=NNc1ccccc1)(C(=O)C)C(=O)C,4.683080924046953,1.6581571983420873,0.0,H12C11(NO)2
N(=C=S)[C@]12C[C@H]3C[C@@H](C2)C[C@@H](C1)C3,5.373566096911963,0.9326400953374104,0.0,H15C11SN
Cc1cc(cc(c1N)C)c1cc(C)c(c(c1)C)N,3.281064431442792,-0.5933039891446241,0.0,H10C8N
C[C@@]12C(C)(C)[C@@H](C[C@@H]1O)CC2,5.022105362322327,-0.7743781293669598,0.0,H18C10O
c1(c2c(c(o1)c1ccccc1)cccc2)c1ccccc1,3.560381534245244,1.0997965270158605,0.0,H14C20O
P(CCC(=O)O)(CCC(=O)O)CCC(=O)O,4.484385967852722,-0.4799095457150542,0.0,PH15(C3O2)3
C(COC(=O)OCC)c1ccccc1,5.301221631501539,-0.5487306593699031,0.0,H14C11O3
C1(=O)C(=O)C(=CC(=O)C=C1C)C,5.745593587267285,2.885980139617095,0.0,H8(C3O)3
[O]n1c(cn(c2c1CCCC2)[O])c1ccccc1,4.486578299257962,1.0884916337832693,0.0,H7C7NO
c1(OC(=O)c2ccccc2)ccc(cc1)N(=O)=O,5.736908284977835,1.994286255574116,0.0,H9C13NO4
C(=O)(OC)c1cc2c(cc1)cc(cc2)C(=O)OC,4.941519055826211,1.3749510989851843,0.0,H6C7O2
C1(C(C(C1)(C)C)C=C)(C)C,4.737849260016082,-0.9662678694807254,0.0,H9C5
c1(ccccc1)SCC=C,4.440085769628785,1.32681142618967,0.0,H10C9S
[C](C#N)(C#N)c1ccc(cc1)[C](C#N)C#N.C1(=[S]C=CS1)C1=[S]C=CS1,3.2636751925107093,3.450744835988735,0.0,H4C9(SN)2
c1(c2ccccc2)sc(cn1)c1ccccc1,4.328690040432411,1.0606844729969451,0.0,H11C15SN
C(=O)(CCC(=O)C)C1CCCCC1,5.353470481769909,0.1303826285489777,0.0,H18C11O2
c1cc(cc(c1)N(=O)=O)C#N,6.692160846263141,2.1646104932020536,0.0,H4C7(NO)2
N(CC(C)C)(CC(C)C)C(=S)S,4.438923737414006,0.7747851704567439,0.0,H19C9S2N
C1(CC1)(C)C,5.055444665473805,-1.158833050565954,0.0,H2C
C(CCCC=C)OCCOC,5.511987524921642,-0.8132516347854106,0.0,H18C9O2
c12c(c(ccc1OC)OC)cccc2,3.7889500156794393,0.1283027862933523,0.0,H6C6O
[C@H]12[C@@H]3[C@H]1CCC[C@H]23,4.5911962877067705,-0.9259542178973788,0.0,H10C7
[C](N(C)C)(N(C)C)[CH]C=C,3.016010681627085,-0.3974214192770886,0.0,H8C4N
[C@]12(C([C@@H](C(=O)C1=O)CC2)(C)C)C,5.05800789347777,1.8109738212111552,0.0,H7C5O
C(=O)(OC)[C@H]1[C@H](C(=O)OC)CCC1,6.2224092188494975,-0.100974802039127,0.0,H14C9O4
N1(N(CCCC1)C)C,3.881780538773092,-1.004192462242281,0.0,H7C3N
O(C)c1ccc(cc1)c1nc(n(n1)c1ccccc1)c1ccccc1,4.331440349420154,0.6564485573995626,0.0,H17C21N3O
c12c(cn(c1)C)cccc2,3.6097129486421182,-0.0474910529177576,0.0,H9C9N
O=c1n([C@@H]2O[C@@H](C=C2)COC(=O)C)ccc(n1)NC(=O)C,5.25034105941595,1.0861498737918738,0.0,H15C13N3O5
N(C(=[NH2])[NH])c1nc(cs1)CSCCC(=N)NS(=O)(=O)N,4.4284288998547705,1.3332550193095811,0.0,H15C8S3N7O2
C(=O)(C1CC1)C1CC1,5.7780560579918525,-0.1373626455046177,0.0,H10C7O
N1([C@H]2CC[C@@H](O1)CC2)C=O,4.4682959092348025,-0.8922319961551692,0.0,H11C7NO2
C(Cc1ccccc1)(C)(C)C,5.122015248021489,-0.6330769178806803,0.0,H16C11
[N](COC)(CC)(CC)CC.[Cl],5.037146843873051,-0.6606088899374298,0.0,H20C8NClO
C1[C@H](CCCC1=O)C,5.512125154658497,-0.0553739051014416,0.0,H12C7O
c12c(nc([nH]1)NC(=O)OC)cc(cc2)SCCC,4.051657072080706,0.0476550283252437,0.0,H15C12SN3O2
S(C)c1c2n(c(c1C)SC)ccnc2,3.930806018304429,0.6101454707037193,0.0,H6C5SN
N(COC(C)C)(CC)CC,4.08500912376403,-1.027031403935689,0.0,H19C8NO
c1(c(ccc(c1)C#N)C#N)C#N,6.562272943281277,1.9877423993981207,0.0,HC3N
c1(C(=C)C)ccc(cc1)OC,4.230591679146164,0.0965327010631882,0.0,H12C10O
c1(c(cc(c(c1)C)OC)C)OC,3.856590715833226,-1.1464757135257968,0.0,H7C5O
N(C(=O)C(C)C)C1CCCCC1,5.4003586730828825,-0.712005433401282,0.0,H19C10NO
[C@]123[C@@]4([C@@H]1[C@H]3CCC[C@H]24)SC,0.4463967505595065,2.3238235237782647,0.0,H12C9S
N(C(C)C)(C(C)C)N=O,4.858301457493871,0.5861642957966979,0.0,H14C6N2O
N1([C@H]2CC[C@@H](O1)CC2)C(=O)C(C)(C)C,4.229270340603398,-0.8734200562743353,0.0,H19C11NO2
P(CC)(CC)CC,4.104303314672142,-0.9178694599635492,0.0,P(H5C2)3
[Si](CCC[Si](C)(C)C)(C)(C)C,5.013952350078034,-0.691664532120194,0.0,Si2(H8C3)3
c1(c(ccc(c1)O)O)OC,4.001930464036922,-0.4999424359015392,0.0,H8C7O3
c12c3c(ccc1ccc(c2C)C)ccc(c3C)C,4.029821457648358,0.315143124874885,0.0,HC
O=C1c2c(C(=O)c3c1cccc3O)c(O)cc(c2)CO,5.169412232347531,2.384598535996338,0.0,H2C3O
c1(c(cccc1)O)CC=C,4.7166800496557695,-0.5541856955627735,0.0,H10C9O
C(=O)(CCCc1ccccc1)c1ccccc1,5.1746922558028015,0.905816998883529,0.0,H16C16O
C(=C)(C)[C@@H]1CCC(=CC1)C,4.643391719302235,-0.733841673693314,0.0,H8C5
O=C1c2c(C(=O)O1)ccc(c2)C(=O)c1cc2c(cc1)C(=O)OC2=O,6.272281592836952,2.41867211656936,0.0,H6C17O7
[C@@H]12N(N([C@@H](C1)CC2)C)C,3.0336320744823757,-0.8770373689352708,0.0,H14C7N2
C(F)(F)(c1ccc(cc1)OC)c1ccc(cc1)OC,4.615071112360601,-0.1098402953924959,0.0,H14C15(OF)2
C(#C[Si](C)(C)C)c1ccc(cc1)C=O,5.202711646326497,1.4294765134887712,0.0,SiH14C12O
C(=O)(O)[C@]12C[C@H]3C[C@@H](C2)C[C@@H](C1)C3,5.866657616382872,-0.5404760452642221,0.0,H16C11O2
C(C#N)(C#N)[C@H]1c2c(c(OC)ccc2)OC(=C1C#N)N,4.676173526504135,1.905364971591189,0.0,H5C7N2O
c1(C(=O)c2ccccc2)cc(N(=O)=O)ccc1,5.638249554218055,2.108938781968027,0.0,H9C13NO3
c1(ccc(cc1)N(C)C)NC(=O)C,3.4705850614041998,-0.6111017144943616,0.0,H14C10N2O
CN1c2c([Si](c3c1cccc3)(C)C)cccc2,3.833768860165583,-0.2091579906285914,0.0,SiH17C15N
C(C)c1cc2cc(c1)CCc1cc(CC2)cc(c1)CC,4.214400424106861,-0.5132073052467603,0.0,H6C5
C(CN)(C)C,4.6961995376492265,-0.8134283999346734,0.0,H11C4N
[C@H](C(=O)NCC(=O)O)(NC(=O)CC[C@@H](C(=O)O)N)CS,5.3531813472087375,0.2258905041904655,0.0,H17C10S(NO2)3
c12c(ccc(c2)OC)cccc1OC,3.9326666837492663,0.2029395550031041,0.0,H6C6O
c1(ccccc1)NC=O,4.784177666909818,0.0311846117016103,0.0,H7C7NO
C1[C@@]2([N][N][C@]1(CC2)C)C,4.741153486658368,0.5638071615845548,0.0,H12C7N2
c1(C=C(C#N)C#N)ccc(cc1)N(C)C,4.21405673072295,1.529340643244359,0.0,H11(C4N)3
C1(=O)[C@H](CNC(=O)N1)C,5.95746968609601,0.0217645285771141,0.0,H8C5(NO)2
[NH](CC)(CC)CC.F.F.F.F.[F],6.262812017650139,-0.7061744120750517,0.0,H20C6NF5
O[C@@H]1[C@H](Oc2c(C1)c(O)cc(c2)O)C1=CC(=O)C(=O)C=C1,4.610279941416229,2.9790586590948807,0.0,H4C5O2
[C@H](Cc1ccccc1)(O)C1=CC=CC1,4.332191130555293,0.0020845809282037,0.0,H14C13O
S(=O)(=O)(c1cc(N(=O)=O)ccc1)C,6.51175121859851,2.2712203377610423,0.0,H7C7SNO4
c12c(n(c(=O)n(c1=O)C)C)ncn2C,4.681603460192127,0.2931243152430398,0.0,H5C4N2O
C1(=CC(=O)C(=CC1=O)C)C(C)C,5.9618135671949855,2.550237511246087,0.0,H6C5O
c12c(ccc(c1)N(CC)CC)ccc(=O)o2,3.997042466822313,0.8544411115814001,0.0,H15C13NO2
c12c(c(ccc2)C)cccc1C,4.349490933831111,0.2805788305300667,0.0,HC
c12c3c(cc(c1cccc2)C=O)cccc3,4.743656201988051,1.4130065104705865,0.0,H10C15O
c12c3c4c5c6c1c(c1c(c2ccc3ccc4c2c(c5)cccc2)cccc1)ccc6,3.907795895238087,1.0551463332500135,0.0,H8C15
c12c(cc3c(c1)cc1c(c3)occ1)cc1c(c2)occ1,3.5623266638300266,1.098091369183385,0.0,H5C9O
[Si](C1=CC(=O)C(=CC1=O)[Si](C)(C)C)(C)(C)C,5.559994931341498,2.577559805985948,0.0,SiH10C6O
c12c(c(cc3c1[CH][CH]C=C3)C)cc1c(c2)cccc1,-0.1219437039639159,5.005484540217003,0.0,H14C19
c1(c(c(cc(c1)C)C)N(C)C)C,3.663450773173827,-0.9029674558045372,0.0,H17C11N
c1(c2c(ccc(c2)Cl)Cl)c(ccc(c1)Cl)Cl,5.313564048550324,0.6272170602693223,0.0,H3(C3Cl)2
C1(CC(N=N1)(C)C)(C)C,4.850772788680478,0.3931696374398599,0.0,H14C7N2
c1(c(c2c(n1C)cccc2)N(=O)=O)c1ccccc1,4.731675647371594,1.550380716538348,0.0,H12C15(NO)2
C(=C(C#N)C#N)(C(=C(C#N)C#N)C#N)C#N,7.051417933163611,4.081126081056572,0.0,C5N3
c1(ccccc1)C=C=C,4.666498257741841,0.3923928150175926,0.0,H8C9
c1(c2c(cc(c(c2)Cl)Cl)Cl)c(cc(c(c1)Cl)Cl)Cl,5.321451619174331,0.8087938083568589,0.0,H2(C2Cl)3
[C@]12(C(=O)OC)C[C@@H]3C[C@H](C1)C[C@H](C2)C3,5.769077008813474,-0.8327628011051273,0.0,H9C6O
c12c3c4ccc1c(ccc2ccc3ccc4)N,3.490423504479258,0.6395264943872463,0.0,H11C16N
c12c3c4=c5c(=c3ccc2=c2c(=c1cc4)cccc2)cccc5,4.293892903720552,1.5869530559080889,0.0,H6C11
[Si](Cc1c2c(ccc1)cccc2)(C)(C)C,4.191527843702351,0.2236988530763484,0.0,Si(H9C7)2
c1(ccc(cc1)OC)C#CSc1ccccc1,4.064390579294559,0.6296335808088771,0.0,H12C15SO
c12c(C(=O)C=CC2=O)cccc1OC,5.134002649023023,2.3967151121556527,0.0,H8C11O3
N([N][N]N(CC(C)C)C)(CC(C)C)C,3.2105039280373604,-0.154532255916274,0.0,H12C5N2
[C@]12(C(C)(C)C)C[C@@H]3C[C@H](C1)C[C@H](C2)C3,5.542663252648344,-0.8673405786888906,0.0,H12C7
N12CCCN(CCC1)CCC2,2.713814568372618,-0.9768577863236714,0.0,H18C9N2
P(=O)(OCC)(OCC)CC,6.203439934588095,-0.8231469973819912,0.0,PH15(C2O)3
[C@]12(c3ccccc3)N=N[C@H](CC1)CC2,4.448906859440831,0.5911108927190072,0.0,H7C6N
c1(c(c(c(c(c1F)F)F)F)F)C(=O)C,6.015487532056431,1.4375220516500122,0.0,H3C8OF5
[Si]([Si](C)(C)C)(Cc1ccccc1)(C)C,4.556188711752474,-0.7071592328742553,0.0,SiH11C6
c12c3c4c(cc2ccc2c1c(cc3)ccc2)cc1c(c4)C=C[CH][CH]1,-0.1585482670510827,5.087386914403032,0.0,H7C12
N1([C@H]2CC[C@@H](O1)CC2)C#N,4.690509152920276,2.250429863604586,0.0,H10C7N2O
[N](C1=C[CH]C(=O)C=C1)S(=O)(=O)C,6.3245584626653,3.0427759538957617,0.0,H7C7SNO3
c12c(n(c(=O)n1C)C)c(=O)n(c(=O)n2C)C,4.13689663678233,0.4244245050482278,0.0,H12C9N4O3
c1(c(cc(c(c1)O)Cl)O)Cl,4.587256691580114,1.54089455329231,0.0,H2C3ClO
N(SOC)(CC)CC,4.14079305932828,1.184523891837307,0.0,H13C5SNO
c12c(cccc1F)cccc2,4.627186246317796,0.4381244245574636,0.0,H7C10F
c1(c(nc(nc1C)N)C)[N][N]c1ccccc1,4.174547167369019,1.525223046571773,0.0,H13C12N5
n12c(n(nc(c1=O)N(=O)=O)C)nc(n2)SC,5.360308095716027,2.592308150180179,0.0,H6C6S(N2O)3
C12=C3C=C[CH]C=C1C=C[C]2C=C[CH][CH]3,1.4441956598708203,1.3668266532473354,0.0,H5C7
c1(c(c2c(n1C)cccc2)C(=O)C)c1ccccc1,4.37099266730147,0.703125923073094,0.0,H15C17NO
c1(N([CH]c2ccccc2)[O])ccccc1,4.429405140913877,1.2166032126784558,0.0,H11C13NO
c1(N(C)C)cc(cc(c1)C)C,3.614413802278796,-0.9585923762046148,0.0,H15C10N
c12c3c(sc2ccc2c1cccc2)cccc3,4.342139906375087,0.650085172559193,0.0,H10C16S
c12c(cc(c(c1)C)C)ccc(c2)C,4.302275375961107,0.1272630202653091,0.0,H14C13
n1([C@@H]2O[C@@H]([C@H](C2)O)CO)c(=O)[nH]c(=O)c(c1)C,5.003804882171243,0.5723892783113116,0.0,H14C10N2O5
C1(=O)C(=O)C=CC(=C1)C,5.59287444645779,2.7901365652975074,0.0,H6C7O2
c1(cc(N(=O)=O)ccc1)C(=O)OC,6.315616600562498,2.1501362293653075,0.0,H7C8NO4
c1(c(ccc(c1)C(=O)O)N(=O)=O)N(=O)=O,6.654092985239549,2.76713404237089,0.0,H4C7(NO3)2
[C@H]12[C@H]3[C@H]4[C@@H]2[C@H]2[C@@H]1[C@H]2[C@@H]34,4.541761840125764,-1.0463885565444797,0.0,HC
[C@H]1(n2c(=O)nc(cc2)N)[C@@H]([C@@H]([C@H](O1)CO)O)O,5.1072762917552605,0.5585927638254362,0.0,H13C9N3O5
c1([C]2[C](C(=C(C=C2)Cl)Cl)Cl)c(c(c(cc1)Cl)Cl)Cl,1.3834645396069392,5.324231917833094,0.0,H2(C2Cl)3
c12c(C=CCC1)cccc2,4.3713563882662125,0.0859595872476348,0.0,HC
c12c(cc(cc2)C)ccc(n1)C,4.788660502939456,0.6105130175816158,0.0,H11C11N
c1(c(c(cc(c1)C)C)C(=O)C)C,4.985100394605615,0.5905199403747248,0.0,H14C11O
C(SSC(C)(C)C)(C)(C)C,4.294793921618838,1.3257900904369309,0.0,H9C4S
c1(C(=O)NCC(=O)O)ccc(cc1)N,4.2803179171183725,0.2738995051964594,0.0,H10C9N2O3
c1(c(c(cc(c1)C)C)OC)C,4.3237360882718345,-0.84199420865516,0.0,H14C10O
C1(c2ccccc2)(c2ccccc2)CC1,4.69476284460834,-0.2776242433468723,0.0,H14C15
c12c3SCSc1cccc2ccc3,4.059335436156834,0.5751267652900425,0.0,H8C11S2
C1(=[S]c2c(C1=O)cccc2)C1=[S]c2c(C1=O)cccc2,4.613577055004134,2.485047922754893,0.0,H4C8SO
c1cc2c(cc1)C(=O)c1c(C2=O)c(c(cc1)C)CC,5.4022254447641895,2.0397883180499776,0.0,H14C17O2
c1(c(c(c(c(c1Cl)Cl)Cl)Cl)Cl)c1ccccc1,5.343590183396008,1.572832211657078,0.0,H5C12Cl5
N1(CCCC1)SC,3.628454998799134,0.7004683015053161,0.0,H11C5SN
N(C(C)C)(C(C)C)COC,4.07625059836173,-0.880436925216054,0.0,H19C8NO
c1(c(C(=O)O)ccc(c1)N)O,4.476193346721265,0.5587919212244743,0.0,H7C7NO3
C1(=CC(=O)C=CC1=O)N(C)C,4.540129293152495,2.463397182465633,0.0,H9C8NO2
C1(OC(=C(O1)C)C)(C)C,3.588773054054036,-0.9816230084892594,0.0,H12C7O2
N1(C(=O)CCC1=O)Cl,6.429654574175947,2.926403270762967,0.0,H4C4NClO2
c12c(c3c(c(c2)N)cccc3)ccc2c1cccc2,3.63438343687958,0.4360071557581251,0.0,H13C18N
[C@H]12[C@H](c3ccccc3)C[C@@H](C2)C[C@@H]1SC,4.33034719466159,-0.5934596137725747,0.0,H18C14S
c1(c(cc(c(c1)C#N)C#N)C#N)C#N,6.832283469800677,2.53390693119909,0.0,HC5N2
c1(c(cccc1)CO)OC,4.75753843776838,-0.3833078812898747,0.0,H5C4O
c12c(c(ccc1O)O)C(=O)C=CC2=O,4.843722751787572,2.6618318644883403,0.0,H3C5O2
N1(c2ccc(cc2)N(=O)=O)C(=O)N=NC1=O,6.111654949052172,3.491284371988149,0.0,HC2NO
N1(CCCCC1)SOC,4.197900915789068,1.156056044100842,0.0,H13C6SNO
N1([C@@H](CCC[C@@H]1C)C)C,3.739970966934925,-0.896323410034165,0.0,H17C8N
c12c(OP(O1)OC)cccc2,4.6437684717944645,0.6941888637862577,0.0,PH7C7O3
c1(C(=S)N(C)C)ccccc1,4.37679959294619,1.0783447482041084,0.0,H11C9SN
c1(N2CCCC2)nnc(nn1)N1CCCC1,3.858466132567264,1.6219891956476205,0.0,H8C5N3
[C@H]12[C@H]([C@@H]3C([C@H]1[N][N]3)(C)C)[C@@H]1C[C@H]2CC1,4.864751891549167,0.5612987699620136,0.0,H9C6N
c12c(C(=O)C(=C(C1=O)Cl)C)cccc2,5.905389984518115,2.5695311497634976,0.0,H7C11ClO2
c12c(cc(cc1cccc2)N(=O)=O)N(=O)=O,5.459567376275663,2.3765480317539187,0.0,H3C5NO2
c12c3c(C(=O)c1ccc(c2)N(=O)=O)ccc(c3)N(=O)=O,5.604526186876319,2.778676096416893,0.0,H6C13N2O5
S(=O)(=O)(NC1=CC(=C[C](C1=O)Cl)[N]S(=O)(=O)c1ccccc1)c1ccccc1,5.465258340621949,3.2073964913957758,0.0,H13C18S2N2ClO5
C(c1cc(C(C)(C)C)cc(c1)O)(C)(C)C,4.567282314031763,-0.5021229902144113,0.0,H22C14O
[Si](C[Si](C)(C)C)(C)(C)C,5.320629078914498,-0.6778020300356729,0.0,Si2H20C7
C(C)(C)C,6.540976723783933,-1.0886164255784023,0.0,H5C2
c1(S(=O)(=O)[N]C2=C[CH]C(=O)C=C2)ccc(cc1)C,5.6734680592104265,3.024780608602305,0.0,H11C13SNO3
C1(=C[CH]C=CN1[O])c1ncccc1,4.71989296849606,1.0391266514230666,0.0,H8C10N2O
c1(c(cccc1)OC)N(C)C,3.4962139318609844,-0.7742185264363797,0.0,H13C9NO
N12[C@H](CCCN1C)CCCC2,3.09398383539301,-0.9543684483272954,0.0,H18C9N2
c1(c(cccc1)Cl)C(=S)N,4.700263389118481,1.280502524417534,0.0,H6C7SNCl
c1(cc(CC)cc(c1)CC)CC,4.906571383016489,-0.7084788489359197,0.0,H3C2
c1(c(cc(c(n1)C#N)C#N)C#N)C#N,7.075385722787905,2.7403616407187656,0.0,HC9N5
C(c1cc2c(cc1)cc1c(c2)cccc1)(C)(C)C,3.92917836393608,0.8480584583645396,0.0,HC
[C]1(C(=O)[CH][CH][CH][CH][CH]1)O,-0.2244575231728958,2.3293209308154474,0.0,H6C7O2
c1(c(cccc1CO)OC)OC,4.288035359462446,-0.2857084570499864,0.0,H4C3O
S(=O)(=O)([N]c1ccc(cc1)[N]S(=O)(=O)N(C)C)N(C)C,5.533795002783881,3.1867281038372317,0.0,H8C5S(NO)2
c1(cc(cc(c1)C(C)C)C(C)C)C(C)C,4.893031485492974,-0.9997040614820434,0.0,H8C5
c1(c(cccc1)F)C(=O)C,5.74549750658989,1.0581711996543164,0.0,H7C8OF
c1(c(cc(c(c1)C)C#N)C)C#N,5.754091318763676,1.409033199442638,0.0,H4C5N
c12c(cc(cc2)N(=O)=O)cccc1N(=O)=O,5.497068935420975,2.283208380949509,0.0,H3C5NO2
n1c(=O)[nH]ccc1N,5.171040558837921,0.4295404248092382,0.0,H5C4N3O
C(=O)(c1ccc(cc1)N(C)C)c1ccc(cc1)N(C)C,3.892760250526044,0.7071229542721995,0.0,H20C17N2O
P(=O)(OCC)(OCC)C=C,6.204568521288456,0.3999407141142002,0.0,PH13(C2O)3
C1(=CC=C(SS1)CO)CO,3.84843232661442,2.166203754238813,0.0,H4C3SO
c1(c(cc(c(c1)C#N)C(=O)Cl)C#N)C(=O)Cl,6.822161493526073,2.8943253948469647,0.0,HC5NClO
N12N(C(=O)CCC1=O)CCCC2,4.599452240615937,-0.1065763688115111,0.0,H6C4NO
c12c3[Si](C=Cc1cccc2ccc3)(C)C,4.249902795532398,0.8087502075482917,0.0,Si(HC)14
c1(cc(ccc1)C#N)OC,5.07627005727918,0.6686774893620169,0.0,H7C8NO
c12c3c(ccc1cc1c(c2)c(ccc1)C)[CH][CH]C=C3,-0.2355943752249003,5.101556722814712,0.0,H14C19
N(N)(C)C,3.4748295910199887,-0.9700439306328916,0.0,H4CN
C(c1c(C(F)(F)F)c(C(F)(F)F)cc(c1C(F)(F)F)C(F)(F)F)(F)(F)F,7.266369927916093,1.9898904769303043,0.0,HC11F15
c12c(C(=O)c3c(C2=O)cccc3)oc2c1ccc1c2C=C[CH][CH]1,0.6497629652854813,2.527377129704837,0.0,H10C20O3
c1([CH]N([O])C)ccc(cc1)OC,4.092862829836667,0.6004291399618524,0.0,H11C9NO2
c1(c(c2ccccc2)nc(s1)c1ccccc1)c1ccccc1,4.244150945743604,0.9882880719393144,0.0,H15C21SN
c12c(c(=O)n(c1=O)C)cc1c(c2)c(=O)n(c1=O)C,6.143797985345008,2.3274622490804178,0.0,H4C6NO2
c12c(c(cc(=O)o2)C)ccc(c1)N(CC)CC,3.974386508083262,0.7611860636912753,0.0,H17C14NO2
[C](c1ccccc1)(c1ccccc1)[C][O],4.22618016959459,1.3003596181784816,0.0,H10C14O
c12c3c(ccc1cc(cc2)C)cc(cc3)C,4.416213053858519,0.3134635974434787,0.0,H7C8
c1(c(cc(cc1)N(=O)=O)Cl)C(=O)O,6.0775374166529215,2.474546902781731,0.0,H4C7NClO4
C([C](C(F)(F)F)[C](C(F)(F)F)C(F)(F)F)(F)(F)F,8.196562532264215,2.743850695239962,0.0,CF2
c1(c(cccc1)C)SCC,4.4966453656867085,-0.1267546466973725,0.0,H12C9S
c12c(ccc(c1)Nc1ccccc1)cccc2,3.7404818742739736,0.315975278922997,0.0,H13C16N
c1(ccccc1)NCCC,3.829924552864759,-0.7626850657437898,0.0,H13C9N
c12c(C(=O)N(C1=O)C)c(c(c(c2Cl)Cl)Cl)Cl,5.897705018958368,2.045619652302412,0.0,H3C9N(Cl2O)2
c1(nnc(nn1)C#N)C#N,6.232155767831136,3.147777445985048,0.0,C2N3
c1(SC(C)C)ccc(cc1)C,4.263518887657119,-0.2004453408975677,0.0,H14C10S
N(N(C)C)(CCC)CCC,3.129113549640897,-0.8940864029849762,0.0,H10C4N
N(C(C)C)(C(C)C)C(C)C,3.5351021640814,-1.11811707595225,0.0,H21C9N
c1(c(c(C(C)(C)C)ccc1)O)C(C)(C)C,4.47876980762303,-0.8083552483098173,0.0,H22C14O
c12c(Oc3c(S1)cccc3)cccc2,4.026521924975532,-0.0001471389536162,0.0,H8C12SO
c12c3c4c(cc1ccc(c2CC3)C)c1c(cc4)cccc1,3.774204003498744,0.6936563397226565,0.0,H16C21
C12=C3C(=CC(=C[C]1C=C(C=C([C]2C=C3)C)C)C)C,3.36036894842764,1.2799606042695817,0.0,HC
c12c(c(ccc1cccc2)C)N(=O)=O,4.916595142528967,1.8416808501875492,0.0,H9C11NO2
c12c3c4c(ccc3ccc1c(ccc2cc4)C)C,3.888048373557104,0.7492347259336385,0.0,H7C9
C1CCC=CC=CC1,4.42490563518877,-0.0238034099314972,0.0,H3C2
c1(C(=O)COc2ccccc2)ccccc1,4.649864455806528,1.2467049597958977,0.0,H6C7O
c1(Nc2ccc(cc2)N)ccc(cc1)N,2.996382092745625,-0.5079417500914132,0.0,H13(C4N)3
c1(N(CCC)CCC)ccccc1,3.66663876366838,-0.9313035106482856,0.0,H19C12N
c12c(cc(cc1C)C)ccc(c2)C,4.2489063500321205,0.2015814049005713,0.0,H14C13
N1(CN=C)CCN(CC1)CN=C,4.057917886327777,-0.2375061001152061,0.0,H4C2N
c1(c(nc(c(n1)C#N)C#N)N(C)C)N(C)C,4.1640750132333775,1.3770096646636376,0.0,H6C5N3
C(=C)(C(=C)[Si](C)(C)C)[Si](C)(C)C,4.849869566658162,0.135904923119233,0.0,SiH11C5
c1(c(cc(cc1)C)N(=O)=O)N(=O)=O,6.138071749622759,2.536514973629528,0.0,H6C7(NO2)2
c12c3c(Cc1cc1c(c2)cccc1)cccc3,4.266918231687304,0.5395296628754296,0.0,H12C17
c1(c2c(c(c3c1cccc3)[C](C#N)C#N)cccc2)[C](C#N)C#N,5.629106523797963,2.709985145696556,0.0,H2C5N
C(C(=O)C(=O)C(=O)C(=O)C(C)(C)C)(C)(C)C,5.282610430001659,2.757684440335288,0.0,H9(C3O)2
C(=C)(OCC)OCC,4.1971225042248985,-0.993435154572944,0.0,H6C3O
c12c(Sc3c(N2)cccc3)cccc1C=C,3.5095219013215684,0.4851130966286292,0.0,H11C14SN
c1(c(cc(cc1)[C](C#N)C#N)F)[C](C#N)C#N,5.67315013772677,3.609196130991768,0.0,H3C12N4F
c1(nnc(nn1)NC)NC,4.267189842119114,1.8360120032717533,0.0,H4C2N3
N1(c2ccccc2)C(=O)CC(=N1)C,4.520770589495077,0.1658654567614577,0.0,H10C10N2O
c1(N(=O)=O)cnccc1,6.118016630456259,2.238408891920335,0.0,H4C5(NO)2
c12c3c(sc1c1c(s2)ccs1)c1c(s3)ccs1,3.823710974867572,0.6991256564593642,0.0,H4C12S5
C(=O)C=C,6.150209115277539,1.1845217557452998,0.0,H4C3O
N1(CCOCC1)SCC,3.797615976117959,0.9199194509506924,0.0,H13C6SNO
[C@H]12CC[C@H](C=C1)C=C2,4.671056961834983,-0.5635962138861941,0.0,H5C4
c12c3c(cnc1[CH][S]=C2)csc3,4.552047822142049,0.8474332877027337,0.0,H5C9S2N
c1(c2ccccc2)c(ccc(c1)Cl)Cl,5.042972727687447,0.456268373943749,0.0,H4C6Cl