smiles,IE,EA,charge,formula_pretty
COCCOc1cc(cc2c1ONO2)C(F)(F)F,4.728239352998207,0.4348125270240417,0.0,H10C10NO4F3
C=Cc1cc2c(cc1CC)ONO2,4.205025403036052,0.4206161739162781,0.0,H11C10NO2
Cc1ccc(c2c1ONO2)OCCOCCOCCOC,4.395849218819057,-0.1554839495714985,0.0,H21C14NO6
CN(C)c1ccc2c(c1OCCOCCOC)ONO2,3.6647047907550583,-0.1079325515260278,0.0,H20C13N2O5
C#Cc1ccc2c(c1)ON(OCCOCCOC)O2,4.206440601801296,0.4134014972638398,0.0,H15C13NO5
c1ccc(cc1)c1ccc2c(c1c1ccccc1)ONO2,4.344265447432553,0.413963730710384,0.0,H13C18NO2
c1cc2c(cc1Cl)ON(C(F)(F)F)O2,4.870451854681596,0.1929629364909488,0.0,H3C7NClO2F3
C=Cc1cc(cc2c1ONO2)OCCOCCOC,4.124601929460914,0.4932474826833641,0.0,H17C13NO5
COCCOc1cc2c(cc1N(=O)=O)ONO2,4.730740022035752,2.0025676320816275,0.0,H10C9(NO3)2
C=Cc1ccc2c(c1C(=O)O)ONO2,4.419970415341231,1.136226333155355,0.0,H7C9NO4
C=Cc1ccc2c(c1)ON(OCCOCCOC)O2,4.015368512072746,0.3588203211926157,0.0,H17C13NO5
C=Cc1cc2c(cc1Cl)ONO2,4.4139227641986505,0.6413728656931199,0.0,H6C8NClO2
COCCOc1c(ccc2c1ONO2)C(Br)(Br)Br,4.602837826585164,3.1220571997051594,0.0,H10C10Br3NO4
C=Cc1ccc(c2c1ONO2)OCCOCCOC,4.3411494011175815,0.4251142075023382,0.0,H17C13NO5
C#Cc1ccc2c(c1)ONO2,4.471279389850315,0.4782505380040676,0.0,H5C8NO2
C=Cc1ccc2c(c1)ON(O)O2,4.479014310070488,0.4075186028763711,0.0,H7C8NO3
COCCOCCOCCOc1ccc(c2ccccc2)c2c1ONO2,4.440519695964758,0.3342400250781794,0.0,H23C19NO6
COCCOc1ccc(c2c1ONO2)C(F)(F)F,4.707546867031487,0.3954093520238531,0.0,H10C10NO4F3
c1ccc(cc1)c1cc(c2ccccc2)c2c(c1)ONO2,4.294300309842219,0.4750044729749789,0.0,H13C18NO2
COCCOCCOc1ccc2c(c1)ONO2,4.079235221857379,-0.1040000738998059,0.0,H15C11NO5
COCCOCCOc1cc2c(cc1N(=O)=O)ONO2,4.722276220408821,2.008233929294511,0.0,H14C11N2O7
COc1ccc(c2ccccc2)c2c1ONO2,4.420525541181268,0.3342328113445547,0.0,H11C13NO3
Cc1c(ccc2c1ONO2)F,4.443024024923579,-0.0026100766775924,0.0,H6C7NO2F
CCN1Oc2cccc(c2O1)C(C)(C)C,4.0975765054769,-0.5090808621520408,0.0,H17C12NO2
CC(C)(C)c1cccc2c1ON(N(C)C)O2,4.295687015562725,-0.5499340093505451,0.0,H9C6NO
CC(C)(C)c1cccc2c1ON(F)O2,5.301799462523922,3.316936039581924,0.0,H12C10NO2F
CNc1c(ccc2c1ONO2)F,4.173960250476375,-0.1720003888171049,0.0,H7C7N2O2F
C#Cc1cc(cc2c1ONO2)OCCOCCOC,4.203271536827378,0.6483327376750823,0.0,H15C13NO5
COCCOCCOc1ccc(c2c1ONO2)C(F)(F)F,4.710815471249225,0.3823844544291206,0.0,H14C12NO5F3
c1cc2c(cc1F)ONO2,4.506037527207445,0.09229777434266,0.0,H4C6NO2F
COCCOc1ccc2c(c1)ON(C(Cl)(Cl)Cl)O2,4.251169379329076,2.2968703378588544,0.0,H10C10NCl3O4
C#Cc1ccc2c(c1)ON(N)O2,3.315374487112058,0.5644460821564281,0.0,H3C4NO
C#Cc1ccc2c(c1N)ONO2,4.29964760255425,0.3748928529617843,0.0,H3C4NO
COCCOCCOCCOc1cc(cc2c1ONO2)N(=O)=O,4.885986556169518,1.9883146711305015,0.0,H18C13(NO4)2
COc1cc2c(cc1F)ONO2,4.263987764288322,0.1042005805917143,0.0,H6C7NO3F
COCCOc1cc2c(cc1OCCOC)ONO2,3.874618197774544,-0.062245405390422,0.0,H17C12NO6
CON1Oc2ccc(cc2O1)F,4.399659011205221,1.4860524227711722,0.0,H6C7NO3F
COCCOCCOCCOc1cc2c(cc1N(=O)=O)ONO2,4.7285814000948445,1.9987240023488997,0.0,H18C13(NO4)2
CN1Oc2ccc(cc2O1)OC,3.9116915857972345,-0.3869901230340473,0.0,H9C8NO3
COCCOCCOc1cc2c(cc1F)ONO2,4.27857756952435,0.0985569586278871,0.0,H14C11NO5F
Cc1cc2c(cc1OC)ONO2,3.9743040467034008,-0.1982104781040106,0.0,H9C8NO3
COCCOCCOc1cc(c2c(c1)ONO2)F,4.280644353040406,0.2571952665908612,0.0,H14C11NO5F
C#Cc1cc2c(cc1N(=O)=O)ONO2,4.920761940103693,2.186821017055627,0.0,H2C4NO2
CCc1cc2c(cc1C(Br)(Br)Br)ONO2,4.558220561267808,2.8833528859482613,0.0,H8C9Br3NO2
c1cc2c(cc1F)ON(C(=O)O)O2,4.71477941884732,0.7759074223555218,0.0,H4C7NO4F
C#Cc1ccc2c(c1)ON(C(Cl)(Cl)Cl)O2,4.7049174282889,4.773907070216955,0.0,H4C9NCl3O2
COCCOCCOCCOc1ccc(c2c1ONO2)F,4.643990707170451,0.1010128812573385,0.0,H18C13NO6F
CC(C)(C)c1c(ccc2c1ONO2)OC,4.003131922823377,-0.0557197345791791,0.0,H15C11NO3
Cc1c(ccc2c1ONO2)OC,4.109195828970405,-0.2199884533805742,0.0,H9C8NO3
CN(C)c1c(ccc2c1ONO2)OCCOCCOC,3.722429393235507,-0.1793785677895356,0.0,H20C13N2O5
C#Cc1ccc(c2c1ONO2)OCCOCCOC,4.688417000228219,0.4735193001339213,0.0,H15C13NO5
C=Cc1c(ccc2c1ONO2)OCCOC,4.0869048483560615,0.5176195382315201,0.0,H13C11NO4
CCc1ccc2c(c1)ON(N)O2,3.2359213388313948,-0.2483416051403764,0.0,H5C4NO
COCCOCCOc1c(ccc2c1ONO2)C#N,4.746500126298633,0.6442056306201267,0.0,H14C12N2O5
CCc1ccc2c(c1)ON(O)O2,4.5721072760730745,-0.3280780620192671,0.0,H9C8NO3
C#Cc1ccc2c(c1C(=O)O)ONO2,4.588018169504357,1.2521447576124047,0.0,H5C9NO4
COCCOCCOc1cc(cc2c1ONO2)C(F)(F)F,4.730645756355079,0.4220054075827648,0.0,H14C12NO5F3
COCCOCCOc1cc(c2c(c1)ONO2)Cl,4.261410604057891,1.3378083192088526,0.0,H14C11NClO5
C=Cc1cc(c2c(c1)ONO2)C(C)(C)C,4.214819683505629,0.3862715951669089,0.0,H15C12NO2
Cc1ccc2c(c1)ON(N(=O)=O)O2,4.3247279350485766,3.229514021216892,0.0,H6C7(NO2)2
CC(C)(C)c1cc(cc2c1ONO2)C(Cl)(Cl)Cl,4.566835987477679,2.8665567000731245,0.0,H12C11NCl3O2
c1ccc(cc1)c1c(ccc2c1ONO2)C(=O)O,4.683223356599774,0.961671651386132,0.0,H9C13NO4
COc1ccc2c(c1)ON(N)O2,3.045557828086749,-0.2052973782578191,0.0,H8C7N2O3
C#Cc1cc2c(cc1OC)ONO2,4.304243648826377,0.50673152884483,0.0,H7C9NO3
CCc1ccc2c(c1C(=O)O)ONO2,4.464506525391334,0.9475816403588396,0.0,H9C9NO4
Cc1c(ccc2c1ONO2)OCCOCCOCCOC,4.142006205407233,-0.2834379881627682,0.0,H21C14NO6
CCc1c(ccc2c1ONO2)c1ccccc1,4.299504984972009,0.104630376235582,0.0,H13C14NO2
COCCOCCOCCOc1c(ccc2c1ONO2)C(F)(F)F,4.683895943091192,0.2240257107783692,0.0,H18C14N(O2F)3
c1c(c(cc2c1ONO2)N(=O)=O)F,4.987784356797056,2.1183423205708096,0.0,H3C6N2O4F
Cc1ccc2c(c1C#N)ONO2,4.658666045943027,0.8555818182354415,0.0,H3C4NO
CC(C)(C)c1ccc2c(c1)ON(C(Cl)(Cl)Cl)O2,4.545910925809585,2.2913710341905245,0.0,H12C11NCl3O2
C#Cc1c(ccc2c1ONO2)OCCOC,4.294275893063604,0.6165588238014608,0.0,H11C11NO4
COCCOCCOc1ccc2c(c1)ON(C#N)O2,4.362187716562039,4.140445670638291,0.0,H14C12N2O5
C#Cc1ccc2c(c1OCCOCCOCCOC)ONO2,4.507082855239423,0.4264940042608942,0.0,H19C15NO6
Cc1ccc(c2c1ONO2)C(C)(C)C,4.288644146146543,-0.3851686011570563,0.0,H15C11NO2
C#Cc1cc2c(cc1C(Cl)(Cl)Cl)ONO2,4.695009828743059,3.150668013325776,0.0,H4C9NCl3O2
CCc1ccc(c2c1ONO2)C(C)(C)C,4.286890277218481,-0.3319837364382692,0.0,H17C12NO2
COc1cc2c(cc1c1ccccc1)ONO2,4.247546014861291,0.267596423507348,0.0,H11C13NO3
C#Cc1ccc2c(c1C)ONO2,4.411194243358841,0.4377639009322593,0.0,H7C9NO2
COCCOc1cc(cc2c1ONO2)c1ccccc1,4.3205573877436105,0.3621432964770066,0.0,H15C15NO4
c1cc2c(c(C#N)c1F)ONO2,4.834495096683531,1.0559012695499406,0.0,H3C7N2O2F
COCCOCCOCCOc1cc(cc2c1ONO2)c1ccccc1,4.341232760476123,0.3468813945451985,0.0,H23C19NO6
CCc1ccc2c(c1OCCOC)ONO2,4.34907496428932,-0.1345945729248341,0.0,H15C11NO4
CNc1ccc2c(c1OCCOCCOC)ONO2,3.594835279616382,-0.29759339358352,0.0,H18C12N2O5
C#Cc1cc2c(cc1CC)ONO2,4.364068934764509,0.4365329722128082,0.0,H9C10NO2
CCc1ccc2c(c1C)ONO2,4.252022766424124,-0.3082531892618134,0.0,H11C9NO2
CCc1ccc2c(c1)ON(C(F)(F)F)O2,4.64796242361408,-0.1510409646165498,0.0,H8C9NO2F3
COCCOCCOCCOc1c(ccc2c1ONO2)F,4.531090408859745,0.1455446783053049,0.0,H18C13NO6F
COCCOCCOc1cc(cc2c1ONO2)N(=O)=O,4.88436185695682,2.0628152631885315,0.0,H14C11N2O7
Cc1ccc2c(c1C(C)(C)C)ONO2,4.249035272126639,-0.2670115913919288,0.0,H15C11NO2
COc1ccc2c(c1O)ONO2,4.238206088304287,-0.0089820711968058,0.0,H7C7NO4
Cc1cc2c(cc1N(=O)=O)ONO2,4.81004798125432,1.941024782639579,0.0,H6C7(NO2)2
c1cc2c(c(c1F)N(=O)=O)ONO2,4.8908770051290045,2.1871054549315887,0.0,H3C6N2O4F
COc1ccc2c(c1N)ONO2,3.99311312938662,-0.2239333992642058,0.0,H8C7N2O3
COCCOCCOc1ccc2c(c1OCCOCCOC)ONO2,4.250933889301086,-0.0702008303400361,0.0,H25C16NO8
C=Cc1ccc(c2c1ONO2)C(C)(C)C,4.366434537374152,0.4612964771236876,0.0,H15C12NO2
c1cc2c(cc1F)ON(N(=O)=O)O2,4.500768214156414,3.296011002411978,0.0,H3C6N2O4F
CCc1ccc2c(c1C(F)(F)F)ONO2,4.5541294739574365,0.4308718941443659,0.0,H8C9NO2F3
COCCOCCOc1cccc2c1ON(C(F)(F)F)O2,4.788107611156738,3.2982813406866627,0.0,H14C12NO5F3
CCc1ccc(c2ccccc2)c2c1ONO2,4.3763161527764165,0.358217164544476,0.0,H13C14NO2
COc1c(ccc2c1ONO2)F,4.493051024875603,0.1629593190642482,0.0,H6C7NO3F
Cc1ccc(c2ccccc2)c2c1ONO2,4.379437257690006,0.3509090439962166,0.0,H11C13NO2
Cc1cc(cc2c1ONO2)c1ccccc1,4.238359936034248,0.302187994542328,0.0,H11C13NO2
CC(C)(C)c1c(ccc2c1ONO2)Cl,4.422471293908165,1.4694627849035895,0.0,H12C10NClO2
c1ccc(cc1)c1ccc(c2c1ONO2)N(=O)=O,4.802816392724344,2.128810899129894,0.0,H4C6NO2
CC(C)(C)c1cc(cc2c1ONO2)C(F)(F)F,4.639667563865805,0.3433668021403719,0.0,H12C11NO2F3
CC(C)(C)c1ccc(c2c1ONO2)F,4.558425841254211,0.1134466931776843,0.0,H12C10NO2F
COCCOCCOc1ccc2c(c1)ON(C(Cl)(Cl)Cl)O2,4.301669617898005,2.2958272003394087,0.0,H14C12NCl3O5
COCCOCCOCCOc1cc2c(cc1C(F)(F)F)ONO2,4.43155676680326,0.3690230989537668,0.0,H18C14N(O2F)3
C#Cc1cc(cc2c1ONO2)OCCOCCOCCOC,4.238430252973194,0.6342830457520905,0.0,H19C15NO6
COCCOCCOc1ccc(c2c1ONO2)OC,4.170717510679969,-0.0740072757202141,0.0,H17C12NO6
COCCOCCOCCOc1c(ccc2c1ONO2)C#N,4.779108752086904,0.5651100970695553,0.0,H9C7NO3
C=Cc1c(ccc2c1ONO2)c1ccccc1,4.344891097008803,0.5473584025035962,0.0,H11C14NO2
C=Cc1ccc(c2ccccc2)c2c1ONO2,4.554217554484785,0.7994634112234054,0.0,H11C14NO2
COCCOCCOc1cc(cc2c1ONO2)c1ccccc1,4.3171489959291645,0.349366936775914,0.0,H19C17NO5
COCCOCCOCCOc1ccc(c2c1ONO2)Cl,4.625442105456022,1.1944669859236456,0.0,H18C13NClO6
C=Cc1ccc2c(c1OCCOC)ONO2,4.2917062758293465,0.3984760613762774,0.0,H13C11NO4
c1cc2c(cc1F)ON(C(F)(F)F)O2,4.865084588809259,0.1411448179438594,0.0,H3C7N(OF2)2
COCCOCCOc1c(ccc2c1ONO2)c1ccccc1,4.360567047353106,0.09837170896717,0.0,H19C17NO5
COCCOCCOc1ccc2c(c1)ON(C(F)(F)F)O2,4.378406931298377,-0.1542722103316918,0.0,H14C12NO5F3
Cc1cc2c(cc1C(F)(F)F)ONO2,4.619545461160305,0.3765301183899283,0.0,H6C8NO2F3
CCc1cccc2c1ON(OCCOCCOCCOC)O2,4.196678305599198,-0.4197257225881912,0.0,H23C15NO6
COCCOCCOc1ccc(c2c1ONO2)Cl,4.617181994648126,1.2077945557335623,0.0,H14C11NClO5
C=Cc1cc2c(cc1C(Cl)(Cl)Cl)ONO2,4.567826890017022,2.7725272597395816,0.0,H6C9NCl3O2
CCc1ccc2c(c1C#C)ONO2,4.437096773260782,0.5740760303593562,0.0,H9C10NO2
CCc1ccc2c(c1NC)ONO2,3.958646129348927,-0.6633835966553305,0.0,H12C9(NO)2
C=Cc1ccc(c2c1ONO2)OCCOC,4.427047484028298,0.4366619351254486,0.0,H13C11NO4
CN(C)N1Oc2cccc(c2O1)OCCOCCOC,2.73428037806807,-0.451841237283952,0.0,H20C13N2O5
CC(C)(C)c1cccc2c1ON(C(F)(F)F)O2,4.716070441185002,-0.2257842931088816,0.0,H12C11NO2F3
Cc1cc(c2c(c1)ONO2)C(C)(C)C,4.220165966676722,-0.2886173567079821,0.0,H15C11NO2
C=Cc1cc2c(cc1OCCOCCOC)ONO2,4.018889806642255,0.4303832729325223,0.0,H17C13NO5
COCCOc1ccc2c(c1C(F)(F)F)ONO2,4.402519071872666,0.4862631286210672,0.0,H10C10NO4F3
c1cc2c(c(c1C(=O)O)C(F)(F)F)ONO2,4.905403552058123,1.281050349441648,0.0,H4C8NO4F3
C#Cc1cc2c(cc1c1ccccc1)ONO2,4.386431916698347,0.5637066372924893,0.0,H9C14NO2
C#Cc1ccc2c(c1C(C)(C)C)ONO2,4.374928018454375,0.4314926157472656,0.0,H13C12NO2
c1ccc(cc1)c1cc(cc2c1ONO2)C(Cl)(Cl)Cl,4.633554548244865,2.7751953712955584,0.0,H8C13NCl3O2
COCCOCCOCCON1Oc2ccc(cc2O1)Cl,4.338505589324631,0.0296087569164229,0.0,H18C13NClO6
COCCOCCOCCOc1ccc2c(c1N(=O)=O)ONO2,4.55561713391362,2.0486799343285385,0.0,H18C13(NO4)2
COCCOc1ccc2c(c1OC)ONO2,4.237237915430887,0.0052424021610932,0.0,H13C10NO5
COCCOc1ccc2c(c1)ON(N(=O)=O)O2,4.1896183964068765,3.1909276802522077,0.0,H10C9(NO3)2
CCc1ccc(c2c1ONO2)OCCOCCOCCOC,4.396854230466124,-0.2797680323623353,0.0,H23C15NO6
c1cc2c(cc1O)ON(C(=O)O)O2,4.377056476574216,0.7231115144291835,0.0,H5C7NO5
C=Cc1c(ccc2c1ONO2)OCCOCCOC,4.194358619473496,0.4060382654985006,0.0,H17C13NO5
CCc1ccc2c(c1)ON(OCCOC)O2,4.123460708514903,-0.3274356311798327,0.0,H15C11NO4
CC(C)(C)c1ccc2c(c1)ON(N(=O)=O)O2,4.3211065542869616,3.221849398885388,0.0,H6C5NO2
COCCOc1cc(c2c(c1)ONO2)OC,4.111757927706639,-0.096796888616518,0.0,H13C10NO5
COCCOc1cc2c(cc1OC)ONO2,4.207266053688363,-0.0553080617159138,0.0,H13C10NO5
CC(C)(C)c1ccc2c(c1Cl)ONO2,4.5107724086861705,1.3930214089210495,0.0,H12C10NClO2
COCCOCCOc1ccc2c(c1OC)ONO2,4.248418898908858,0.003161754442408,0.0,H17C12NO6
COCCOCCOc1ccc2c(c1)ON(O)O2,4.264656252753047,-0.1350184528113458,0.0,H15C11NO6
CCc1ccc2c(c1c1ccccc1)ONO2,4.29878300981145,0.218492066347244,0.0,H13C14NO2
COCCOCCOc1ccc2c(c1F)ONO2,4.366461512022942,0.338752823570394,0.0,H14C11NO5F
CN(C)c1ccc2c(c1C(=O)O)ONO2,3.764814380797907,0.8883907497416659,0.0,H10C9(NO2)2
COc1ccc2c(c1C(F)(F)F)ONO2,4.397570893962984,0.5033404761175917,0.0,H6C8N(OF)3
COCCOCCOCCOc1ccc2c(c1F)ONO2,4.338563642091321,0.3388058776050457,0.0,H18C13NO6F
C#Cc1cc(c2c(c1)ONO2)C(C)(C)C,4.391190463914972,0.430554644788208,0.0,H13C12NO2
C=Cc1ccc2c(c1C(C)(C)C)ONO2,4.254233960758574,0.2304198744073802,0.0,H15C12NO2
Cc1ccc2c(c1N(=O)=O)ONO2,4.696721868329041,2.021742784074013,0.0,H6C7(NO2)2
C=Cc1ccc2c(c1OCCOCCOC)ONO2,4.324222614211612,0.3851065125578317,0.0,H17C13NO5
C=Cc1cc(cc2c1ONO2)c1ccccc1,4.309249678136984,0.5675817125062168,0.0,H11C14NO2
COCCOCCOc1c(ccc2c1ONO2)C(=O)O,4.627888313627045,0.857534194210166,0.0,H15C12NO7
c1cc2c(c(c1F)C(=O)O)ONO2,4.661798495280527,1.1340986233532022,0.0,H4C7NO4F
COc1ccc2c(c1)ON(C(Br)(Br)Br)O2,4.164539443526882,2.5925773958966603,0.0,H6C8Br3NO3
c1c(c(cc2c1ONO2)F)C(F)(F)F,4.804058192390221,0.5836244396501571,0.0,H3C7N(OF2)2
C#Cc1cc2c(cc1C(F)(F)F)ONO2,4.751762764398881,0.851660921770963,0.0,H4C9NO2F3
C#Cc1c(ccc2c1ONO2)OCCOCCOCCOC,4.289497878825932,0.6023830016798457,0.0,H19C15NO6
c1ccc(cc1)c1ccc2c(c1)ON(N)O2,3.2014782984093477,0.419138285565714,0.0,H5C6NO
c1cc2c(c(c1O)C(F)(F)F)ONO2,4.447096837100252,0.5197225292155054,0.0,H4C7N(OF)3
CN(C)c1c(ccc2c1ONO2)F,4.096030885267828,0.0150071283438593,0.0,H9C8N2O2F
C#Cc1ccc(c(c1)O[N]NC)[O],3.462108304438152,2.852240064484795,0.0,H8C9(NO)2
COCCOc1ccc(c2c1ONO2)OC,4.277714503337483,-0.0529701058716454,0.0,H13C10NO5
COCCOCCOCCOc1cccc2c1ON(Cl)O2,5.219434747866762,3.8371540815001937,0.0,H18C13NClO6
COCCOc1c(ccc2c1ONO2)F,4.507936440980847,0.1734975941413723,0.0,H10C9NO4F
C#Cc1ccc2c(c1)ON(O)O2,4.705607631438033,0.4701583404799749,0.0,H5C8NO3
COCCOc1ccc2c(c1C#N)ONO2,4.425788342550368,0.9549291085728328,0.0,H5C5NO2
C#Cc1cc2c(cc1OCCOCCOC)ONO2,4.4372550591593605,0.4722281852788001,0.0,H15C13NO5
C=Cc1ccc2c(c1)ON(C(F)(F)F)O2,4.558964689245476,0.4975058547293884,0.0,H6C9NO2F3
C#Cc1ccc2c(c1C#N)ONO2,4.76663705648898,1.1997983708621178,0.0,H4C9(NO)2
Cc1cc2c(cc1F)ONO2,4.377936849195612,0.0205601445628418,0.0,H6C7NO2F
CC(C)(C)c1cccc2c1ON(C)O2,4.128147776865808,-0.5463619165733689,0.0,H15C11NO2
COCCOCCON1Oc2ccc(cc2O1)OCCOC,3.807961779637117,-0.1896604680972813,0.0,H21C14NO7
c1ccc(cc1)c1ccc(c2c1ONO2)C(F)(F)F,4.688827407769713,0.8608301975669748,0.0,H8C13NO2F3
c1cc2c(cc1F)ON(O)O2,4.784114639898325,1.6342550017558095,0.0,H4C6NO3F
CCc1c(ccc2c1ONO2)OCCOCCOCCOC,4.127000332669558,-0.396040547674056,0.0,H23C15NO6
C=Cc1ccc2c(c1)ON(OCCOC)O2,4.02137559377079,0.3847657716120012,0.0,H13C11NO4
Cc1ccc2c(c1)ON(C(Cl)(Cl)Cl)O2,4.5613027158411565,2.293424222896283,0.0,H6C8NCl3O2
CC(C)(C)c1c(ccc2c1ONO2)F,4.406329207116505,0.0030118823066005,0.0,H12C10NO2F
Cc1ccc2c(c1N)ONO2,4.142182301156572,-0.6270558957916363,0.0,H8C7(NO)2
CC(C)(C)c1c(ccc2c1ONO2)N,3.696960038627003,-0.2405843960754281,0.0,H7C5NO
COc1ccc2c(c1C(Cl)(Cl)Cl)ONO2,4.155802431445045,3.205501272941183,0.0,H6C8N(ClO)3
c1cc2c(cc1N(=O)=O)ON(O)O2,5.258445061239035,2.083307356360456,0.0,H4C6N2O5
CC(C)(C)c1cc(cc2c1ONO2)OC,4.020499115098209,-0.2341053029944304,0.0,H15C11NO3
CC(C)(C)c1ccc(c2c1ONO2)OCCOCCOCCOC,4.396341189758095,-0.3151746442075818,0.0,H27C17NO6
COCCOCCOc1cc2c(cc1OC)ONO2,3.871457103011926,-0.0763252828932308,0.0,H17C12NO6
C#Cc1cc2c(cc1C#C)ONO2,4.511409263910172,0.7522703816590366,0.0,H5C10NO2
Cc1c(ccc2c1ONO2)OCCOC,4.121510248217964,-0.2591954070980136,0.0,H13C10NO4
CC(=O)c1ccc2c(c1C(=O)O)ONO2,4.835643751784664,1.3413497447669216,0.0,H7C9NO5
CC(C)(C)c1cc(cc2c1ONO2)OCCOC,3.9333021620783257,-0.2343935803895873,0.0,H19C13NO4
CCc1cc(c2ccccc2)c2c(c1)ONO2,4.307967613780056,0.4153438295157685,0.0,H13C14NO2
COCCOc1cc2c(cc1c1ccccc1)ONO2,3.934602145128884,0.2529297597226105,0.0,H15C15NO4
C#Cc1c(ccs1)OCCOCCOC,4.418407622027734,0.5516343558207155,0.0,H14C11SO3
CCc1ccc2c(c1)ONO2,4.308861096851251,-0.2185976523418502,0.0,H9C8NO2
COCCOCCOc1cscc1O,4.4409443840319,-0.4292994520677893,0.0,H14C9SO4
c1cc2c(c(c1F)C(F)(F)F)ONO2,4.764580441865837,0.7152819856724819,0.0,H3C7N(OF2)2
COCCOCCOCCOc1cc(cs1)O,4.116068121109128,-0.4701921673462492,0.0,H18C11SO5
COCCOCCOc1cc2c(cc1C(F)(F)F)ONO2,4.4226964327332094,0.3670876675074397,0.0,H14C12NO5F3
COCCOCCOc1ccc2c(c1C(=O)O)ONO2,4.374129339846695,0.668798014024651,0.0,H15C12NO7
CCc1cc2c(cc1OCCOC)ONO2,3.987886296030047,-0.2245813322500907,0.0,H15C11NO4
c1cc(c2c(c1)ON(C(=O)O)O2)C(F)(F)F,4.917276172718266,0.7223342729499564,0.0,H4C8NO4F3
COCCOCCOCCOc1cc(c2c(c1)ONO2)C(=O)O,4.383632951035542,1.0255368808699132,0.0,H19C14NO8
c1c(c(cc2c1ONO2)F)F,4.574093405049643,0.2688082716027566,0.0,H3C6N(OF)2
C=Cc1cc2c(cc1C(C)(C)C)ONO2,4.223420891733985,0.3923893047482125,0.0,H15C12NO2
CC(C)(C)c1ccc2c(c1)ON(O)O2,4.551912233256735,-0.4170621145080075,0.0,H13C10NO3
c1cc2c(c(C#N)c1Cl)ONO2,4.831546843922842,1.107591957186378,0.0,H3C7N2ClO2
c1cc2c(c(c1Cl)N)ONO2,4.344379520274378,1.3263596274242446,0.0,H5C6N2ClO2
c1cc2c(cc1N)ON(O)O2,3.8777599833389114,-0.2554993855123029,0.0,H6C6N2O3
CC(C)(C)c1cc2c(cc1OC)ONO2,3.97102609538124,-0.2120957751707464,0.0,H15C11NO3
c1cc(F)sc1Cl,4.852422658420982,1.3130377148532717,0.0,H2C4SClF
COCCOCCOCCOc1cc(cc2c1ONO2)F,4.500194682537403,0.0360948270077643,0.0,H18C13NO6F
c1csc(c1F)Cl,5.025114122317609,1.372438628373493,0.0,H2C4SClF
CC(C)(C)c1cc2c(cc1OCCOCCOCCOC)ONO2,3.9914205922010297,-0.3144152615590427,0.0,H27C17NO6
c1csc(C#N)c1Cl,5.568243637864361,1.0350551426650785,0.0,H2C5SNCl
C=Cc1ccc2c(c1)ON(CC)O2,4.0945952698017205,0.3486279545046273,0.0,H11C10NO2
COCCOc1ccc2c(c1)ON(C(F)(F)F)O2,4.329691068332613,-0.0328506916506738,0.0,H10C10NO4F3
COCCOc1ccc2c(c1)ON(C(=O)O)O2,4.257063046699477,0.7268529708686402,0.0,H11C10NO6
C=Cc1ccc2c(c1C(F)(F)F)ONO2,4.4976066051000085,0.8077058101458534,0.0,H6C9NO2F3
CCc1cc(OCCOC)sc1,4.095554313260072,-0.5248459869239013,0.0,H14C9SO2
CN(C)c1cc(cs1)OCCOCCOC,3.311549962477875,-0.6990322455989371,0.0,H19C11SNO3
COCCOCCOc1cc(OCCOCCOC)sc1,3.9395976653991966,-0.1135688590715289,0.0,H24C14SO6
c1c(csc1O)F,4.509208597662655,-0.3484181279112817,0.0,H3C4SOF
c1cc2c(cc1F)ON(C(Cl)(Cl)Cl)O2,4.776309824521013,2.3159355939584203,0.0,H3C7NCl3O2F
COc1ccc2c(c1)ON(O)O2,4.289413795651489,1.5174009628441127,0.0,H7C7NO4
COc1cc2c(cc1C(F)(F)F)ONO2,4.421105951836216,0.3966317554091803,0.0,H6C8N(OF)3
c1cc2c(c(C#N)c1N(=O)=O)ONO2,5.220046032556274,2.432563615113031,0.0,H3C7N3O4
COc1cc2c(cc1C(Br)(Br)Br)ONO2,4.354987804830307,3.1899867296102458,0.0,H6C8Br3NO3
CN(C)c1cc2c(cc1OCCOC)ONO2,3.401210054589319,-0.1754113711598619,0.0,H16C11(NO2)2
CC(C)(C)c1cc2c(cc1c1ccccc1)ONO2,4.30014649062432,-0.1310820077691459,0.0,H17C16NO2
CC(C)(C)c1ccc2c(c1)ON(N(C)C)O2,4.295971028944768,-0.5358904590451856,0.0,H9C6NO
CNc1c(ccc2c1ONO2)Cl,4.164829206668946,1.359037824558618,0.0,H7C7N2ClO2
CC(C)(C)c1cscc1OCCOCCOC,4.416945910850336,-0.7829202099841495,0.0,H22C13SO3
COCCOCCOCCOc1cc(c2c(c1)ONO2)OC,4.13279846631267,-0.0818633899965788,0.0,H21C14NO7
COCCOCCOCCOc1ccc2c(c1)ONO2,4.0607045089069285,-0.177125745484227,0.0,H19C13NO6
COCCOCCOCCOc1ccc2c(c1C#N)ONO2,4.447635655158228,0.9092583382385784,0.0,H9C7NO3
CC(C)(C)c1cc2c(cc1C(C)(C)C)ONO2,4.213584387359878,-0.1994490749915711,0.0,H21C14NO2
CCc1ccc2c(c1OC)ONO2,4.336412076061242,-0.1869790610457129,0.0,H11C9NO3
C#Cc1cc2c(cc1C)ONO2,4.35777004907286,0.4525906329614373,0.0,H7C9NO2
COCCOCCOc1cc(cs1)C(=O)O,4.538758089752809,0.7173630415578374,0.0,H14C10SO5
Cc1cc2c(cc1OCCOC)ONO2,3.983002685295651,-0.2238344069759477,0.0,H13C10NO4
COCCOCCOCCOc1cc2c(cc1F)ONO2,4.271317904292664,0.0981581186548283,0.0,H18C13NO6F
CNc1cc2c(cc1OCCOCCOC)ONO2,3.3768593490873173,-0.3656020487855129,0.0,H18C12N2O5
c1cc2c(cc1Cl)ON(O)O2,4.794507075564615,0.0793180939050217,0.0,H4C6NClO3
C#Cc1c(ccc2c1ONO2)Cl,4.623915119603771,0.7913417818686868,0.0,H4C8NClO2
C#Cc1ccc2c(c1OCCOC)ONO2,4.505998288391856,0.4344853183043597,0.0,H11C11NO4
CC(C)(C)c1c(ccs1)N(C)C,3.789825786859729,-0.695451134963514,0.0,H17C10SN
C=Cc1ccc2c(c1N(C)C)ONO2,3.990897488719929,0.3359935593121919,0.0,H6C5NO
COCCOCCOCCOc1cscc1c1ccccc1,4.405090523150284,0.1873172600622639,0.0,H22C17SO4
c1cc(c2c(c1)ON(C#N)O2)C(Br)(Br)Br,5.050173006771365,2.8221477134444286,0.0,H3C8Br3(NO)2