smiles,IE,EA,charge,formula_pretty
C#Cn1c2cccc(c2[nH]s1)OC,3.535446975850937,2.78076856204425,0.0,H8C9SN2O
CN(C)n1c2ccccc2n(C#N)s1,3.98425764166459,2.9322554598162243,0.0,H10C9SN4
CCc1cscc1N(=O)=O,5.4166843088220045,1.9060410819598477,0.0,H7C6SNO2
C=Cc1ccsc1N(C)C,3.536031865501718,0.1362182023382048,0.0,H11C8SN
CCc1cscc1C(Cl)(Cl)Cl,5.139314833615208,2.640278693333676,0.0,H7C7SCl3
c1cc2c(cc1C#N)[nH]s[nH]2,3.569452892601112,2.3846650895990025,0.0,H5C7SN3
CC(C)(C)c1ccsc1c1ccccc1,4.483514436212863,0.1781538319934044,0.0,H16C14S
CC(C)(C)c1cccs1,4.694709703502303,-0.4308348870530607,0.0,H12C8S
c1cnc(c(Cl)n1)Cl,6.030873017197882,1.2454359324197868,0.0,HC2NCl
c1ccc(cc1)c1c(ccs1)C(=O)O,4.734812787950068,1.0477042891521706,0.0,H8C11SO2
CNc1cscc1O,3.709280716496869,-0.3833112718297342,0.0,H7C5SNO
CN(C)c1cc(cs1)OC,3.324108413418435,-0.7384776064121978,0.0,H11C7SNO
C#Cc1ccc(C#N)s1,5.201722610492288,1.3308954548971088,0.0,H3C7SN
CC(C)(C)c1cc(C(=O)O)sc1,5.192395614788984,0.9349231767060702,0.0,H12C9SO2
CC(C)(C)c1ccc(O)s1,4.111297701570583,-0.3865393936743202,0.0,H12C8SO
CC(C)(C)Cn1ccc(=c2ccn(C)cc2)cc1OCCOCCOC,1.769173491995025,-0.4284913556024547,0.0,H32C21N2O3
c1c(csc1F)C(F)(F)F,5.389434094316675,0.4873861778083665,0.0,H2C5SF4
Cn1ccc(=c2ccn(CC#N)c(c2)C(=O)O)cc1,2.4387421666193405,0.8967853310510692,0.0,H13C14N3O2
C=Cc1cc(OCCOCCOCCOC)sc1,4.102876202765037,0.3044238587186556,0.0,H20C13SO4
CNc1c(ccs1)F,3.623242625571584,-0.1259755194681928,0.0,H6C5SNF
COc1ccsc1F,4.48008895292296,0.3417371096416901,0.0,H5C5SOF
CC(C)(C)c1cscc1N,3.8091161382413694,-0.7212456819310318,0.0,H13C8SN
c1c(csc1C(=O)O)Cl,5.411691218525084,1.2068485138821416,0.0,H3C5SClO2
Cc1cscc1C(F)(F)F,5.246552935460931,0.1727288888701879,0.0,H5C6SF3
CC(=O)c1ccc(C#N)s1,5.713756053178804,1.7847728967186414,0.0,H5C7SNO
c1cc2c(cc1O)ns[nH]2.[Cl],4.194363079420873,3.882485278243257,0.0,H5C6SN2ClO
CNc1cc(cs1)N,3.2235484559256293,-0.7822462792413716,0.0,H8C5SN2
c1c(c(cs1)Cl)Cl,5.799256882537156,1.2505659803297022,0.0,H2C4SCl2
COCCOCCOc1cscc1C(=O)O,4.791045964413206,0.7095562724076445,0.0,H14C10SO5
c1c(csc1N)N(=O)=O,4.274134113807667,1.9267138451119536,0.0,H4C4S(NO)2
c1csc(c1C(=O)O)F,5.282595469184889,0.9822545162947792,0.0,H3C5SO2F
c1ccc(cc1)c1cc(C(Cl)(Cl)Cl)sc1,4.6931482680389305,2.91338486851746,0.0,H7C11SCl3
C=Cc1ccsc1OCCOC,3.9961671936158383,0.1776643019198673,0.0,H12C9SO2
COCCOCCOc1cc(C(F)(F)F)sc1,4.730349813509383,0.5302593566535507,0.0,H13C10S(OF)3
C#Cc1cscc1C=C,4.69785281425502,0.4207895648556587,0.0,H6C8S
CCc1ccsc1NC,3.4056806264503394,-0.4722814356267917,0.0,H11C7SN
COc1c(ccs1)Cl,4.462933533251634,1.2157527508075874,0.0,H5C5SClO
c1c(csc1C(=O)O)O,4.886556509494403,1.0313924713533198,0.0,H4C5SO3
CC(C)(C)c1ccsc1O,4.128029774694005,-0.1422008132234622,0.0,H12C8SO
c1ccc(cc1)c1cscc1C(=O)O,4.791386830534611,0.7061912473705889,0.0,H8C11SO2
c1csc(C#N)c1C(Cl)(Cl)Cl,5.737611127807758,2.885326260942384,0.0,H2C6SNCl3
COCCOc1cc(c2ccccc2)sc1,4.09743364571259,0.5143576742753795,0.0,H14C13SO2
c1ccc(cc1)n1c2ccccc2[nH]s1,3.192007803476008,2.319143778012949,0.0,H10C12SN2
CC(=O)c1ccsc1c1ccccc1,4.65981658134624,1.106030056410964,0.0,H10C12SO
C(#N)c1cscc1F,5.610853307099751,0.7731392409310502,0.0,H2C5SNF
C=Cc1cc(F)sc1,4.553731374131166,0.4112678553734441,0.0,H5C6SF
CNc1ccsc1C(F)(F)F,4.162665079873113,0.3058914910958266,0.0,H6C6SNF3
C=Cc1c(ccs1)OC,4.023784976774186,0.4168626492297336,0.0,H8C7SO
c1ccc2c(c1)n(C(=O)O)sn2N,3.742101509445638,2.7609092097351096,0.0,H7C7SN3O2
C#Cc1c(ccs1)N(=O)=O,5.355316472113918,2.1934542707909714,0.0,H3C6SNO2
CC(=O)c1cc(cs1)C(C)(C)C,5.131697771337349,1.0349553068204842,0.0,H14C10SO
c1csc(c1C(Cl)(Cl)Cl)O,4.676066814341175,2.972637164357002,0.0,H3C5SCl3O
c1csc(c1N(=O)=O)N,4.555988718968001,1.61032891901923,0.0,H4C4S(NO)2
C=Cc1cscc1OCCOCCOC,4.377423348616139,0.3272421007037338,0.0,H16C11SO3
CCc1ccc(C#N)s1,5.168179962112481,0.7569128423871008,0.0,H7C7SN
C#Cc1cc(O)sc1,4.447939238959952,0.2917815695051104,0.0,H4C6SO
C=Cc1cscc1C(=O)O,4.756910439844068,0.7134798736820813,0.0,H6C7SO2
C=Cc1ccc(O)s1,3.989596477081796,0.3859015938229277,0.0,H6C6SO
c1ccc(cc1)c1ccsc1C(=O)O,4.924585169473721,1.137963875256537,0.0,H8C11SO2
COCCOCCOCCOc1cscc1F,4.658147813309915,-0.1312076318412436,0.0,H17C11SO4F
c1csc(c1C(F)(F)F)N,4.174152779179712,0.1334492426627549,0.0,H4C5SNF3
c1c(csc1C#N)N,4.241755342578108,0.7694190420275846,0.0,H4C5SN2
C=Cc1cc(C#N)sc1,4.899542402288352,0.9782688621759008,0.0,H5C7SN
c1c(csc1C#N)C(Cl)(Cl)Cl,5.7537019728421,2.6358898427075474,0.0,H2C6SNCl3
C#Cc1ccc2c(c1)n(C=C)s[nH]2,3.42025313340273,2.79039384349162,0.0,H8C10SN2
COc1cc(C#N)sc1,4.7956125951764985,0.8813854402011203,0.0,H5C6SNO
CN(C)c1ccc(OC)s1,3.11266008026505,-0.6251906860437884,0.0,H11C7SNO
c1ccc(cc1)c1ccc(C(=O)O)s1,4.696010418536025,1.2989360818406568,0.0,H8C11SO2
CN(C)n1c2cccc(c2[nH]s1)C(=O)O,3.410570275389182,0.8825080784969033,0.0,H11C9SN3O2
CC(=O)c1ccsc1C,4.979286320534447,0.7017116903094576,0.0,H8C7SO
CNc1ccc(OCCOC)s1,3.1786874800542138,-0.3555985563201829,0.0,H13C8SNO2
Cc1cccc2c1n(F)s[nH]2,4.641366487566847,4.230561115322052,0.0,H7C7SN2F
CNc1c(ccs1)C#N,4.09020320006457,0.3103723325344618,0.0,H6C6SN2
COCCOc1cc(Cl)sc1,4.379440433259878,1.2929310056293617,0.0,H9C7SClO2
COCCOc1cc(cs1)C(=O)O,4.486860064969369,0.7228332997998224,0.0,H10C8SO4
CNC1=CN(C=C[C]1[C]1C=CN(C)C=C1)COCCOCCOC,1.909534065807384,-0.3122443101477983,0.0,H9C6NO
c1cc(O)sc1C(Cl)(Cl)Cl,4.705153993179556,3.4513224357011496,0.0,H3C5SCl3O
C#Cc1cc(cs1)Cl,4.898024983960204,0.7888912144349889,0.0,H3C6SCl
COCCOCCOc1c(ccs1)C(Cl)(Cl)Cl,4.558917292453407,2.7820547217139397,0.0,H13C10S(ClO)3
c1ccc(cc1)c1ccsc1N,3.656989413751581,0.0250552665362193,0.0,H9C10SN
Cc1cc(cs1)OCCOCCOC,4.171958328015171,-0.3203050621945293,0.0,H16C10SO3
CCc1ccc(N)s1,3.53222053295176,-0.5694162390886048,0.0,H9C6SN
c1c(c(cs1)Cl)C(Cl)(Cl)Cl,5.391995286912424,2.5684587763476885,0.0,H2C5SCl4
c1c(csc1N(=O)=O)C(Cl)(Cl)Cl,6.061413901633932,2.3351679687635625,0.0,H2C5SNCl3O2
C#Cc1ccc(N)s1,3.728661189261038,0.4012945267182659,0.0,H5C6SN
COCCOCCOc1ccc(OC)s1,3.696841157534073,-0.0682013568934052,0.0,H16C10SO4
COc1cc(cs1)N,3.602117799696862,-0.692184046418697,0.0,H7C5SNO
COCCOc1c(ccs1)C(F)(F)F,4.6009541076397,0.3441522396911751,0.0,H9C8SO2F3
Cc1c(ccs1)Cl,4.804043691439437,1.1306565601713374,0.0,H5C5SCl
CCc1cscc1NC,3.6782749255668015,-0.7134035488619701,0.0,H11C7SN
COCCOCCOc1cscc1OC,4.314447751783154,-0.3804364571537006,0.0,H16C10SO4
C#Cc1c(ccs1)C(=O)C,4.98647908385974,1.3154698003141676,0.0,H6C8SO
CC(C)(C)c1cc(C#N)sc1,5.258406034675863,0.7451253171653662,0.0,H11C9SN
c1c(csc1O)N,3.6153688783175313,-0.4362020903412484,0.0,H5C4SNO
CC(C)(C)c1cscc1F,5.021607257943833,-0.2181700853128858,0.0,H11C8SF
CC(C)(C)c1c(ccs1)C#N,5.173302635741129,0.4492101926785836,0.0,H11C9SN
C#Cc1cscc1O,4.826282529602031,0.3452031270113367,0.0,H4C6SO
COc1c(ccs1)F,4.369824643142783,0.1232568025057845,0.0,H5C5SOF
CN(C)c1ccsc1c1ccccc1,3.5583000402562903,0.3478108837203764,0.0,H13C12SN
c1ccc(cc1)c1cscc1N,3.88852261355496,0.1125295634170471,0.0,H9C10SN
CCc1cc(C(C)(C)C)sc1,4.520751663976261,-0.5717452750381198,0.0,H16C10S
c1c(c(cs1)C(Cl)(Cl)Cl)C(Cl)(Cl)Cl,5.68136221228051,2.753994086882449,0.0,H2C6SCl6
C#Cc1cc(C=C)sc1,4.526087391853798,0.6826422355021351,0.0,H6C8S
C(#N)c1cscc1C(=O)O,5.830148753009416,0.9587862514832524,0.0,H3C6SNO2
CNc1cc(cs1)F,3.7195035599339454,-0.1948913505133531,0.0,H6C5SNF
CC(C)(C)c1ccsc1N,3.561524295355048,-0.3438980286104196,0.0,H13C8SN
c1c(csc1C(F)(F)F)C(F)(F)F,5.965952859508979,0.8095455772505376,0.0,H2C6SF6
c1csc(C#N)c1N,4.443007491286698,0.5159491864811572,0.0,H4C5SN2
c1csc(c1C(Cl)(Cl)Cl)C(=O)O,5.662160798588593,3.044822984667553,0.0,H3C6SCl3O2
c1c(c(cs1)O)C(F)(F)F,4.93138117177441,0.223913140003424,0.0,H3C5SOF3
C=Cc1c(ccs1)Cl,4.559421960225881,0.6899296182506078,0.0,H5C6SCl
COCCOc1ccsc1C(Cl)(Cl)Cl,4.7555043949847455,2.9464875605277485,0.0,H9C8SCl3O2
c1csc(c1O)C(Cl)(Cl)Cl,4.9114363185814,3.3414382580609527,0.0,H3C5SCl3O
COCCOCCOc1ccc(c2ccccc2)s1,3.8537264156271696,0.4326167806008016,0.0,H18C15SO3
c1c(c(cs1)C(F)(F)F)C(F)(F)F,5.9407324673025865,0.4748472836887232,0.0,H2C6SF6
CCc1ccsc1N(C)C,3.50395519777303,-0.4231753995140024,0.0,H13C8SN
c1cc(C(F)(F)F)sc1C(=O)O,5.908119387002079,1.4920546608460428,0.0,H3C6SO2F3
CCc1cscc1c1ccccc1,4.574762478555931,0.0582406294430257,0.0,H12C12S
C#Cc1ccsc1OC,4.326112624415691,0.3331423015311885,0.0,H6C7SO
c1c(csc1C(Cl)(Cl)Cl)Cl,5.322337534767575,2.8425641807494686,0.0,H2C5SCl4
CCc1cc(N(=O)=O)sc1,5.537475628168613,2.1375307408248774,0.0,H7C6SNO2
c1cc(O)sc1Cl,4.328156212946487,1.228603536362789,0.0,H3C4SClO
C=Cc1cc(cs1)OCCOCCOC,4.1571670496865405,0.5257256190066983,0.0,H16C11SO3
CC(=O)C1=c2c(C=C[CH]1)ns[nH]2.[Cl],4.584527542161231,3.630228032708692,0.0,H7C8SN2ClO
COc1ccsc1N(=O)=O,5.316603998222126,2.068943008327188,0.0,H5C5SNO3
c1c(csc1C(=O)O)F,5.4759323950471295,1.1962788042124886,0.0,H3C5SO2F
CC(C)(C)c1c(ccs1)C(F)(F)F,5.095353188529407,0.1933330820589618,0.0,H11C9SF3
COCCOc1c(ccs1)Cl,4.301600800319283,1.2045304223516724,0.0,H9C7SClO2
C#Cc1cscc1OC,4.603796908124059,0.3633705679836567,0.0,H6C7SO
COCCOCCOc1cc(cs1)F,4.399617922013567,0.057622316054767,0.0,H13C9SO3F
CNc1ccsc1N,3.117289270002948,-0.4219706808020418,0.0,H8C5SN2
CC(=O)c1ccc(C(=O)O)s1,6.040456303320388,1.80642061109902,0.0,H6C7SO3
C#Cc1c(ccs1)OC,4.407190142644685,0.5616069252806484,0.0,H6C7SO
CCc1cc(F)sc1,4.747626677589869,-0.4762946494251081,0.0,H7C6SF
CC(C)(C)c1cscc1C(=O)O,5.145418782388878,0.6429201974984609,0.0,H12C9SO2
COCCOc1ccsc1OCCOC,3.870960223140719,-0.1130233252464676,0.0,H16C10SO4
CC(C)(C)c1ccsc1NC,3.3984449534887973,-0.3183536685450234,0.0,H15C9SN
COCCOCCOc1ccc(N(=O)=O)s1,5.0083663944729775,1.9637174985233288,0.0,H13C9SNO5
c1ccc(cc1)c1cscc1F,4.707415776194102,0.3250980150929536,0.0,H7C10SF
Cc1cc(cs1)Cl,4.822180108718021,-0.0821932763195945,0.0,H5C5SCl
CN(C)c1cc(cs1)OCCOC,3.313650498997595,-0.701640557419887,0.0,H15C9SNO2
CCc1ccsc1OCCOC,4.027036737142771,-0.4790671819559065,0.0,H14C9SO2
C#Cc1ccsc1C#N,5.399606313696131,1.2383012490696277,0.0,H3C7SN
CC(C)(C)c1ccc(C(C)(C)C)s1,4.381475782183406,-0.5474178053395007,0.0,H20C12S
c1csc(c1C(=O)O)N,4.1306932576058895,0.3616507649836422,0.0,H5C5SNO2
C=Cc1cscc1N(=O)=O,5.012819423156179,1.995617207897885,0.0,H5C6SNO2
COc1ccsc1C(F)(F)F,4.871603911205602,0.3928925548039843,0.0,H5C6SOF3
c1csc(c1C(Cl)(Cl)Cl)Cl,5.207402099791215,2.9426761191221886,0.0,H2C5SCl4
c1cc(N)sc1C(=O)O,4.161012758378638,0.715746035011398,0.0,H5C5SNO2
CCn1c2cc(ccc2[nH]s1)C(=O)C,3.32126590681728,0.958634251413605,0.0,H12C10SN2O
c1csc(c1F)C(F)(F)F,5.636176114794216,0.6108040868726676,0.0,H2C5SF4
C(#N)c1cscc1C(Cl)(Cl)Cl,5.877202405864955,2.7126406202820363,0.0,H2C6SNCl3
C#Cc1ccc(N(=O)=O)s1,5.458803571780299,2.369296880956972,0.0,H3C6SNO2
C=Cc1ccsc1O,4.122482119118649,-0.0679485713029861,0.0,H6C6SO
COc1ccc(N(=O)=O)s1,5.019169550608785,1.9677630340062024,0.0,H5C5SNO3
CC(=O)c1cc(OCCOC)sc1,4.464267786313576,0.8110115796713218,0.0,H12C9SO3
COCCOC1=c2c(C=C[CH]1)ns[nH]2.[Cl],4.522358137002447,3.3419780666168664,0.0,H11C9SN2ClO2
CN(C)c1c(ccs1)C(=O)O,3.92977193129409,0.5678816635896511,0.0,H9C7SNO2
c1ccc(cc1)c1ccsc1N(=O)=O,5.198567404271307,2.14422032212824,0.0,H7C10SNO2
CN(C)c1ccsc1O,3.590393045693054,-0.6213700961801805,0.0,H9C6SNO
COCCOc1ccsc1C#N,5.020209213232738,0.7324960132260459,0.0,H9C8SNO2
CNc1c(ccs1)C(=O)O,3.992435067962652,0.3058998504362535,0.0,H7C6SNO2
CCc1ccsc1N,3.590789953662897,-0.5343713781025143,0.0,H9C6SN
C#Cc1cscc1N,4.02351875964232,0.3143029788348941,0.0,H5C6SN
COCCOCCOc1c(ccs1)O,3.990624036084773,-0.4224371084150333,0.0,H14C9SO4
CC(=O)c1ccc(O)s1,4.712994300365244,0.9009364848003316,0.0,H6C6SO2
CC(C)(C)c1ccsc1Cl,4.742691852310236,1.27147537368146,0.0,H11C8SCl
C#Cc1cc(c2ccccc2)sc1,4.455004957778874,0.6387976619604161,0.0,H8C12S
COCCOc1ccc(C(Cl)(Cl)Cl)s1,4.550773978351208,3.108747771717026,0.0,H9C8SCl3O2
CN(C)c1cc(cs1)F,3.646911530796933,-0.4481324753236548,0.0,H8C6SNF
CNc1ccsc1OCCOC,3.363055726994935,-0.5132079936905938,0.0,H13C8SNO2
COCCOc1c(ccs1)C(Cl)(Cl)Cl,4.526899847589084,2.8718830291414634,0.0,H9C8SCl3O2
c1cc(C(=O)O)sc1C#N,5.852935802593128,1.7413684101644322,0.0,H3C6SNO2
c1c(C#N)csc1C(=O)O,5.8819685450558605,1.3480353695318628,0.0,H3C6SNO2
CC(=O)c1cc(C(C)(C)C)sc1,4.977011105978454,0.7535932059414336,0.0,H14C10SO
COCCOc1cc(cs1)N(=O)=O,4.75999680398454,1.9905735370826732,0.0,H9C7SNO4
COCCOCCOc1c(ccs1)C(=O)O,6.074585772184946,2.0786669734116003,0.0,H14C10SO5
CNc1cc(cs1)Cl,3.729446879869647,-0.144158084529772,0.0,H6C5SNCl
c1csc(c1Cl)N,3.871755875841336,1.2087543747198652,0.0,H4C4SNCl
CCc1cc(OC)sc1,4.0864845086704005,-0.4754153217239945,0.0,H10C7SO
COCCOc1cc(OC)sc1,3.915315606057993,-0.074554749712115,0.0,H12C8SO3
c1c(csc1Cl)C(F)(F)F,5.317042128715547,1.3597523900549278,0.0,H2C5SClF3
CC(=O)c1cc(N(=O)=O)sc1,6.061288217695255,2.2825861409524806,0.0,H5C6SNO3
CC(C)(C)n1c2cc(ccc2[nH]s1)C(Cl)(Cl)Cl,3.0828706871703617,2.1520011615590198,0.0,H13C11SN2Cl3
Cc1ccsc1OCCOC,4.028707796389062,-0.1984757673293642,0.0,H12C8SO2
C#Cc1cscc1NC,3.8641103994428714,0.321767695456947,0.0,H7C7SN
CCc1cscc1C(=O)O,5.113329390621948,0.6476883258415911,0.0,H8C7SO2
C=Cc1cscc1C(F)(F)F,4.848894033109536,0.4991032473168162,0.0,H5C7SF3
CC(=O)c1cscc1C(F)(F)F,5.965577731532539,0.9651192275974608,0.0,H5C7SOF3
COCCOc1c(ccs1)O,3.966040324945061,-0.411823264598206,0.0,H10C7SO3
C#Cc1cc(F)sc1,4.910342371965816,0.4256029021904397,0.0,H3C6SF
CC(=O)c1cc(c2ccccc2)sc1,4.580468507106707,0.8580846478485911,0.0,H10C12SO
CCc1c(ccs1)C(F)(F)F,5.114470720412646,0.1935798158425314,0.0,H7C7SF3
COCCOCCOc1cc(Cl)sc1,4.426021742752345,1.238312008457433,0.0,H13C9SClO3
CCc1cc(cs1)F,4.826919327684299,-0.1716476340392545,0.0,H7C6SF
CCc1c(ccs1)C(=O)C,4.967408967813389,0.7147500657061756,0.0,H10C8SO
Cc1cscc1C(=O)C,5.089675032600644,0.7361527388544347,0.0,H8C7SO
CC(=O)c1ccsc1OC,4.59375394281742,0.7766664839124133,0.0,H8C7SO2
CNc1c(ccs1)O,3.232448926789948,-0.4224929761025122,0.0,H7C5SNO
C=Cc1ccsc1C(=O)C,4.890956250119052,1.3070675100221707,0.0,H8C8SO
c1cc(C#N)c2c(c1)[nH]sn2N,3.711223960331699,0.8415193723427365,0.0,H6C7SN4
c1cnc(c(C(Cl)(Cl)Cl)n1)Cl,6.213730983357527,2.715349053681712,0.0,H2C5(NCl2)2
CC(=O)c1cc(cs1)N(=O)=O,5.890954198437248,2.0721662103511336,0.0,H5C6SNO3
CC(=O)c1ccsc1C(=O)C,5.367029310252837,1.6459014740481508,0.0,H8C8SO2
c1cc2c(cc1C#N)n(N)s[nH]2,3.637815219602635,2.025787187563401,0.0,H6C7SN4
C=Cc1ccc(Cl)s1,4.43403511706274,1.2565499731696037,0.0,H5C6SCl
CC(=O)c1ccc(F)s1,5.267868624699622,1.113180315552745,0.0,H5C6SOF
CNc1ccc2c(c1)[nH]sn2OC,3.6552761605322304,1.8576367049878173,0.0,H11C8SN3O
C=Cc1ccc(OCCOCCOC)s1,3.908002465011669,0.4153801431071771,0.0,H16C11SO3
C=Cc1c(ccs1)C(=O)C,4.662382960433751,1.3057111504291243,0.0,H8C8SO
CC(=O)c1ccc(Cl)s1,5.220023955969372,1.2122260193951662,0.0,H5C6SClO
c1cc(C#N)c2c(c1)n(O)s[nH]2,4.13647433243168,4.2710801257759154,0.0,H5C7SN3O
Cn1ccc(=c2ccn(cc2)CC#N)cc1,2.064810929755913,-0.3703669716327566,0.0,H13C13N3
C(#N)c1cncc(F)n1,6.497690059802698,1.7830613496513252,0.0,H2C5N3F
c1cnc(c(n1)N(=O)=O)N(=O)=O,6.915940118369326,2.9083966762787896,0.0,HC2(NO)2
CN1C=C[C](C=C1)[C]1C=CN(C)C=C1N,1.7127662660801437,-0.2495281031100602,0.0,H5C4N
CC(C)(C)n1c2ccccc2[nH]s1,2.9096855489166047,2.0508570681718994,0.0,H14C10SN2
COCCOC1=C[C]2C(=NSN2)C=C1.[Cl],4.41214005935908,3.5463266585589737,0.0,H11C9SN2ClO2
c1c(C#N)csc1N,4.134646723372134,0.4430534021099448,0.0,H4C5SN2
COCCOCCOc1cscc1C(F)(F)F,4.827996656307368,0.2033045113581466,0.0,H13C10S(OF)3
CC(=O)c1cc(cs1)F,5.438754411906848,1.2865694684456686,0.0,H5C6SOF
Cn1c2ccc(cc2[nH]s1)O,3.216786326350848,1.9799213252204937,0.0,H8C7SN2O
Cc1c(F)nccn1,5.852998568370458,0.873003626471109,0.0,H5C5N2F
C#Cc1c(F)nccn1,5.826309112458693,1.367457791365814,0.0,H3C6N2F
c1c(C(F)(F)F)ncc(Cl)n1,6.360084540648677,1.470199886878254,0.0,H2C5N2ClF3
Cn1ccc(=c2cc(C#N)n(C)c(c2)C#N)cc1,2.5357702633678856,0.7575351204774052,0.0,H6C7N2
COn1c2ccccc2[nH]s1,3.8974293920196943,1.8098780133419496,0.0,H8C7SN2O
Cc1cc(Cl)sc1,4.745484284526901,1.2349529318249552,0.0,H5C5SCl
COc1c(ccs1)N,3.4204140669731715,-0.4154828719132637,0.0,H7C5SNO
COn1c2ccc(cc2[nH]s1)C(F)(F)F,4.036838010937208,3.895554669170088,0.0,H7C8SN2OF3
c1c(Cl)ncc(F)n1,6.063653907379921,1.272051329827809,0.0,H2C4N2ClF
c1c(F)nc(cn1)F,6.252701059258106,1.1512082898021618,0.0,HC2NF
c1c(Cl)ncc(=O)[nH]1,5.084971528574533,1.3732809839726543,0.0,H3C4N2ClO
C#Cc1cnc(cn1)Cl,5.693874099096865,1.3017168322090584,0.0,H3C6N2Cl
c1cnc(c(F)n1)N,4.871228067571428,0.687533342973984,0.0,H4C4N3F
c1c(Cl)nc(cn1)F,6.124304484657477,1.2218297331070065,0.0,H2C4N2ClF
c1cnc(c(C#N)n1)F,6.540247986598478,1.801482931344799,0.0,H2C5N3F
C(#N)c1cncc(Cl)n1,6.350515984051162,1.7846272396214773,0.0,H2C5N3Cl
c1csc(c1C#N)N,4.251383092095784,0.3751891876505397,0.0,H4C5SN2
C#Cc1cncc(F)n1,5.861818640479759,1.3475554505181209,0.0,H3C6N2F
c1cnc(c(Cl)n1)F,6.1337324509200695,1.2068388864950976,0.0,H2C4N2ClF
C=Cn1c2cc(ccc2[nH]s1)O,3.3449239138841222,2.707239917073457,0.0,H8C8SN2O
c1c(Cl)nc(cn1)N(=O)=O,6.525132114567532,2.6170036103081658,0.0,H2C4N3ClO2
c1cnc(C#N)cn1,6.117686964542008,1.5211183753031947,0.0,H3C5N3
COCCOCCOc1cscc1N(=O)=O,5.041081944682082,1.938416878988937,0.0,H13C9SNO5
C#Cc1ccsc1C(=O)O,5.310817364113609,1.3414361245828332,0.0,H4C7SO2
Cc1cc(C(=O)C)sc1,5.155291747295996,1.0637772998430592,0.0,H8C7SO
CC(=O)c1ccsc1,5.340469233587646,0.8058756622645888,0.0,H6C6SO
CC(=O)c1ccsc1O,4.651104524827678,1.134466045060981,0.0,H6C6SO2
c1c[nH]c(=O)cn1,5.1135559036225455,1.0766869408995263,0.0,H4C4N2O
c1c(C(Cl)(Cl)Cl)ncc(Cl)n1,6.198107159152277,2.8371052043454257,0.0,H2C5(NCl2)2
Cc1c(Cl)nccn1,5.755030949619686,0.9122999695842736,0.0,H5C5N2Cl
c1csc(c1O)N,3.417716934467171,-0.4109945881631573,0.0,H5C4SNO
CC(=O)c1cscc1Cl,5.28858268929398,0.9177908486068193,0.0,H5C6SClO
C=Cc1ccsc1CC,4.404361698890716,0.0359079555470089,0.0,H10C8S
CC(C)(C)c1cscc1OCCOC,4.407231610073358,-0.7980243620680993,0.0,H18C11SO2
[CH]1C=C(c2c(=C1)[nH]sn2)N.[Cl],4.8235486018616935,2.954712163207296,0.0,H6C6SN3Cl
COCCOc1ccc(OCCOC)s1,3.7113583192600346,-0.0391837602895974,0.0,H16C10SO4
CCn1c2ccccc2n(C)s1,2.8775684314656247,1.455810303004546,0.0,H12C9SN2
C=Cc1cscc1C(=O)C,4.715305624425673,0.8195648278357113,0.0,H8C8SO
CC(C)(C)c1cc(cs1)OC,4.154260405860986,-0.4997146412410074,0.0,H14C9SO
c1cnc(c(C#N)n1)Cl,6.375853589297185,1.778788465771504,0.0,H2C5N3Cl
C=Cc1ccsc1Cl,4.643575159397733,1.270537742869783,0.0,H5C6SCl
COCCOCCOc1cscc1Cl,4.698453154525486,0.0017803005117458,0.0,H13C9SClO3
C#Cc1cncc(Cl)n1,5.80278266970854,1.3609931175938983,0.0,H3C6N2Cl
CC(C)(C)c1cc(O)sc1,4.235419310619909,-0.3819693288263805,0.0,H12C8SO
COCCOCCOc1ccc(O)s1,3.789875145588303,-0.1698786736800683,0.0,H14C9SO4
C=Cn1c2c(cccc2O)[nH]s1,3.3422678161528894,2.666762678812665,0.0,H8C8SN2O
COCCOCCOc1ccsc1C(=O)O,4.984015977426315,0.9303479797905312,0.0,H14C10SO5
CCc1cscc1N(C)C,3.651149116065062,-0.5547037186755914,0.0,H13C8SN
CCn1c2cc(ccc2[nH]s1)C(F)(F)F,3.163329230779345,2.17551553605299,0.0,H9C9SN2F3
Cn1ccc(=c2ccn(C)cc2C(=O)O)cc1,2.1459047394433584,0.4029915565130069,0.0,H14C13(NO)2
C(C(F)(F)F)(S(=O)(=O)F)(F)F,8.039639289790648,3.0591738630697365,0.0,C2S(OF3)2
C1CCC(SC1)(OC)OC,4.854196775345917,-0.7385132914227142,0.0,H14C7SO2
C1C[C@H]([C@H](SC1)C)OC,4.7344644822347615,-0.8789447617695259,0.0,H14C7SO
C1CC[C@@](SC1)(C)N,3.948468304422568,-0.734439801677945,0.0,H13C6SN
c1(c(c2c(cc1)nccn2)NC)C,3.761253964421121,1.0988156110484852,0.0,H11C10N3
C(P(=O)(O)O)(P(=O)(O)O)(C)O,6.124757393650361,1.690614711160015,0.0,P2H8C2O7
[C@@H]1(CC[C@H](SC1)C)N(=O)=O,4.996546582949668,1.6745260185431108,0.0,H11C6SNO2
c1(cc2c(cc1)ncc(n2)CC)C,5.245242456981577,1.1171922395384173,0.0,H12C11N2
C1CC[C@@](SC1)(N(=O)=O)C,5.129716496872424,1.576998239159002,0.0,H11C6SNO2
C1C[C@H]([C@H](SC1)C)O,4.661552085317089,-0.5042968369220033,0.0,H12C6SO
S(=O)(=O)(N)c1c(C)cccc1,5.596422892549162,0.5482118494634052,0.0,H9C7SNO2
c1c(c2c(cc1)nc(cn2)N)C,4.505733293055164,0.9693802364268778,0.0,H3C3N
C1[C@H](C[C@H](SC1)OC)C,4.836221629056672,-0.8444803522528672,0.0,H14C7SO
C(N(C)C)[C@@H]1CO1,4.054180424523656,-0.9288198378475498,0.0,H11C5NO
C(=C\O)\O.C(=O)=O.C(=O)=O,4.216017259228101,1.2133365268578928,0.0,H2C2O3