smiles,IE,EA,charge,formula_pretty
Cc1cc(cn1C)OC,3.576171162863466,-0.9453889447198888,0.0,H11C7NO
Cn1cc(c2ccccc2)c(c1)C(=O)O,4.503978689417272,0.2127030947682215,0.0,H11C12NO2
CCc1ccn(C)c1C(=N)O,4.528365357478469,-0.1194342211623733,0.0,H12C8N2O
CC1=COC(=CC1)F,4.494954028517531,-0.5512905322142614,0.0,H7C6OF
C1=COC(=C(C1)F)C(=O)O,5.007664144851878,0.9087341653535989,0.0,H5C6O3F
C1C(=COC=C1O)C#N,4.4748049185142005,0.4805749452967576,0.0,H5C6NO2
CCc1c[nH]cc1NC,3.22745033979445,-0.8016804672774014,0.0,H12C7N2
C1C=C(F)OC=C1C(=O)O,5.15063755573974,0.8751446807396861,0.0,H5C6O3F
C1=COC(=C(C1)C(=O)N)N(=O)=O,5.034117860382684,2.551215872060857,0.0,H3C3NO2
CN(C)c1cc(cn1C)[C]([NH])O,3.5813158967590426,-0.2385861090573597,0.0,H13C8N3O
C1C=COC(=C1)C#N,4.859082562986805,0.5639833389719571,0.0,H5C6NO
C1C=C(O)OC=C1C#N,4.660507290627356,0.5192697372309341,0.0,H5C6NO2
CN(C)c1cc[nH]c1C(=N)O,3.953632777458188,-0.1575562951005849,0.0,H11C7N3O
C1C=C(C(Cl)(Cl)Cl)OC(=C1)O,4.478795623058977,2.574845098993683,0.0,H5C6Cl3O2
CCc1c(cc[nH]1)NC,3.060571967643773,-0.7795574162759293,0.0,H12C7N2
CCc1cc(C)n(C)c1,3.872657277424514,-0.9331083791552373,0.0,H13C8N
C1=COC(=C(C1)C(=O)O)O,4.764795547852918,0.4328293151116669,0.0,H3C3O2
CCc1cc(cn1C)N(C)C,3.0103137954080013,-0.8904995908709679,0.0,H16C9N2
COC1=CCC=C1C#N,4.788594045963327,0.5479304900705757,0.0,H7C7NO
C1C(=COC=C1F)C#N,5.050061276857013,0.5406568427493768,0.0,H4C6NOF
CN(C)C1=COC=C(C1)C(=N)O,3.5536355546315463,0.3451734938113078,0.0,H6C4NO
CC1=CCC=C1O,4.262990837307006,-0.6727467571166925,0.0,H8C6O
Cn1cc(cc1C#N)c1ccccc1,4.393476073218698,0.1432537437336578,0.0,H5C6N
C#CC1=CCC=C1,4.754644890678355,0.1653969724380659,0.0,H6C7
c1ccc(cc1)c1cc[nH]c1N,3.2955915770249704,-0.5525812960444454,0.0,H5C5N
COC1=CCC=C1N,3.7799667277628033,-0.8967237246146396,0.0,H9C6NO
C#CC1=CC=CC1,4.563852939236858,0.3278922862051332,0.0,H6C7
COC1=CCC=C1O,4.243697151685046,-1.0606169906353895,0.0,H4C3O
C#C[C@@H]1C=CC=C1,4.92675404936981,-0.0629486523124795,0.0,H6C7
Cn1ccc(c1)C(=O)O,4.922360834761639,0.1131136584896013,0.0,H7C6NO2
CCc1ccn(C)c1OC,3.5715331321458508,-0.8975390241852437,0.0,H13C8NO
C#CC1=C(C=CC1)N(=O)=O,5.312412454433433,2.145330007826124,0.0,H5C7NO2
C#CC1=C(C=CC1)F,4.669298819606047,0.5274954120191979,0.0,H5C7F
C1C=C(C#N)OC=C1F,4.95685272777664,0.693434558782974,0.0,H4C6NOF
C1=COC(=C(C1)O)C#N,4.564238562923128,0.4258356411552086,0.0,H5C6NO2
c1ccc(cc1)C1=C(CC=CO1)N(=O)=O,4.992606456203793,1.933651561581064,0.0,H9C11NO3
C1C=C(C#N)OC(=C1)C#N,5.345269297209233,0.9567928407428554,0.0,H4C7N2O
C1=COC=C(C#N)[C@@H]1N,5.036698465577137,0.5119203315731284,0.0,H6C6N2O
C[C@@H]1C=COC(=C1)c1ccccc1,4.231128331171567,0.2337035156411731,0.0,H12C12O
C1=COC(=C(C1)C(=O)O)F,5.1840037382913575,0.9396435409085826,0.0,H5C6O3F
C1=COC=C([C@@H]1C(=O)O)N(=O)=O,5.593937170725985,2.429571503039915,0.0,H5C6NO5
C1=COC=C([C@@H]1C#N)N,3.9431800413636666,0.2371776501600835,0.0,H6C6N2O
C1=COC(=C(C1)C(=N)O)F,5.052496260331827,0.7350026687632636,0.0,H6C6NO2F
C1=COC(=C[C@@H]1C(Cl)(Cl)Cl)N,4.1984114666571255,2.1641715400633985,0.0,H6C6NCl3O
C#CC1=COC(=CC1)F,4.665264275906884,0.456933139888497,0.0,H5C7OF
C#CC1=C(F)OC=CC1,4.583431655378808,0.4777126750683238,0.0,H5C7OF
C1C=C(N(=O)=O)OC=C1C(=O)O,5.5240536702236565,2.2572725742444164,0.0,H5C6NO5
c1ccc(cc1)[C@@H]1C=COC=C1F,4.723855917434412,-0.2920245049666845,0.0,H9C11OF
C1=COC(=C(C1)C#N)O,4.83719856671596,0.4417904809703032,0.0,H5C6NO2
C1=COC(=C(C1)C#N)C#N,5.313746628765875,1.6600317116641237,0.0,H4C7N2O
C1=COC(=C[C@@H]1O)C#N,5.414756409485198,0.7858137048802747,0.0,H5C6NO2
C1C=C(C(=O)O)OC=C1N(=O)=O,5.666139791353634,2.0494225248308795,0.0,H5C6NO5
C1=COC(=C(C1)C#N)F,5.176001221330443,0.7824521084799927,0.0,H4C6NOF
C1C=C(N)OC=C1C#N,4.050234610596453,0.4813327088664665,0.0,H6C6N2O
C#C[C@@H]1C=COC=C1F,4.921084988212533,0.0704994150160929,0.0,H5C7OF
C1=COC(=C[C@@H]1C(Cl)(Cl)Cl)C(=O)O,5.45431942143623,2.146009383549972,0.0,H5C7(ClO)3
C1C=C(C#N)OC=C1N,3.746157464172575,0.4730811560362782,0.0,H6C6N2O
C1C=C(N(=O)=O)OC=C1C(=N)O,5.275354762122879,2.206769527454162,0.0,H3C3NO2
C#CC1=COC=C[C@H]1F,5.089721022559024,0.532979874616649,0.0,H5C7OF
C1=COC=C([C@@H]1C(=N)O)F,5.019118382322267,0.1204199558738765,0.0,H6C6NO2F
C1=COC(=C[C@@H]1C#N)F,5.269639040872425,0.060545934347465,0.0,H4C6NOF
C1=COC(=C(C1)N(=O)=O)C(=O)O,5.299691034700663,2.428128284712875,0.0,H5C6NO5
c1ccc(cc1)C1=CCC(=CO1)N(=O)=O,4.7265409735242425,1.8670769762371493,0.0,H9C11NO3
c1ccc(cc1)C1=CCC=C(F)O1,4.414175394683843,0.3384331142966403,0.0,H9C11OF
C1C=C(C#N)OC(=C1)O,4.555224440993333,0.5965755971170439,0.0,H5C6NO2
C1=COC=C(C#N)[C@@H]1F,5.7733216663251365,0.900657546347793,0.0,H4C6NOF
C1C=C(C#N)OC(=C1)F,5.037716179496419,0.7345351363743249,0.0,H4C6NOF
C1=COC(=C[C@@H]1C#N)O,4.824798507802916,-0.2005624205979983,0.0,H5C6NO2
C1C=C(C#N)OC=C1O,4.346793355063346,0.5668295218289132,0.0,H5C6NO2
C1C=C(C(=O)O)OC(=C1)N(=O)=O,5.497466199854534,2.2277800491916424,0.0,H5C6NO5
C1C(=COC=C1F)[C]([NH])O,4.867877181569929,0.519968819451242,0.0,H6C6NO2F
C1=COC(=C[C@@H]1N)C#N,4.943108276836574,0.6583004662239547,0.0,H6C6N2O
C1=COC(=C[C@@H]1C(=N)O)N(=O)=O,5.441955425774358,2.2717917223977566,0.0,H3C3NO2
C1C=C(C(=N)O)OC=C1N(=O)=O,5.475463986449176,2.0423397471946374,0.0,H3C3NO2
C1C(=COC=C1N(=O)=O)C(=N)O,5.427753399084031,2.052983041890548,0.0,H3C3NO2
C1=COC(=C(C1)C(=O)O)N(=O)=O,5.311094476682774,2.945927419632062,0.0,H5C6NO5
c1ccc(cc1)C1=COC=C(C1)N(=O)=O,4.65320965190549,1.9011911072171643,0.0,H9C11NO3
C1=COC=C([C@@H]1C(Cl)(Cl)Cl)C(=O)O,5.533605818347132,2.156617349699081,0.0,H5C7(ClO)3
C1C=COC(=C1)C(=O)O,4.859688995889519,0.8097509116301809,0.0,H2C2O
C#C[C@@H]1C=COC(=C1)F,5.080042787758066,-0.0335403342454809,0.0,H5C7OF
C#CC1=CCC=C(F)O1,4.7057874116086165,0.5486037859078352,0.0,H5C7OF
C1C=C(C#N)OC=C1C#N,5.387075204756547,1.0421194356109482,0.0,H4C7N2O
C#CC1=CCC(=CO1)N(=O)=O,5.178055680807665,1.950664725585375,0.0,H5C7NO3
C1=COC(=C[C@@H]1C(=O)O)C#N,5.330021999632299,1.050333082986617,0.0,H5C7NO3
C#CC1=C(CC=CO1)N(=O)=O,5.277086796635194,2.1879773974684213,0.0,H5C7NO3
CC1=COC=C[C@H]1c1ccccc1,4.430886917774478,-0.4058467793824092,0.0,H12C12O
C1=COC(=C(C1)C#N)C(=O)O,5.124883308831704,1.6977958225685144,0.0,H5C7NO3
C#CC1=CCC(=CO1)F,4.633448638821937,0.4782952871260932,0.0,H5C7OF
C#CC1=COC=C(C1)N(=O)=O,5.059587525194365,2.0158518650529005,0.0,H5C7NO3
C#CC1=C(CC=CO1)F,4.599826410750756,0.5493910438977765,0.0,H5C7OF
C1=COC(=C[C@@H]1C(Cl)(Cl)Cl)C(=N)O,5.359148637698672,2.175924487777229,0.0,H6C7NCl3O2
C#C[C@@H]1C=COC=C1N(=O)=O,5.600457486336017,2.013318044387779,0.0,H5C7NO3
C#CC1=C[C@@H](C=CO1)O,5.036800257921277,0.5722643236345903,0.0,H6C7O2
C#CC1=COC=CC1,4.428135743462553,0.3226665092330223,0.0,H6C7O
C#CC1=CCC=C(N(=O)=O)O1,5.023216427616353,2.127792793365734,0.0,H5C7NO3
C1C=C(C(=O)O)OC=C1C#N,5.382953534537228,1.1514135561570584,0.0,H5C7NO3
C1C(=COC=C1C(=N)O)C#N,5.247958068735533,0.9889095037611696,0.0,H6C7(NO)2
C#CC1=COC(=CC1)O,4.358775194053669,0.2935371609160939,0.0,H6C7O2
C1=COC(=C[C@@H]1C#N)C(=N)O,5.407159962560035,0.9209183046583348,0.0,H6C7(NO)2
C1C=C(C#N)OC=C1C(=O)O,5.3837549887044585,1.1219985264029677,0.0,H5C7NO3
C#CC1=COC=C(C1)O,4.142561728527289,0.2828462299745298,0.0,H6C7O2
C1=COC=C(C#N)[C@@H]1C(=N)O,5.381725819484563,0.9998117311002716,0.0,H6C7(NO)2
C#CC1=C(N(=O)=O)OC=CC1,5.092944001449359,2.303152700798455,0.0,H5C7NO3
C#C[C@@H]1C=COC(=C1)N(=O)=O,5.460646756633286,2.2147269388347923,0.0,H5C7NO3
C1C(=COC=C1C(=O)O)C#N,5.430323152380515,1.192273468108033,0.0,H5C7NO3
C1C=C(C(=N)O)OC=C1C#N,5.255101565851509,0.9590740962226848,0.0,H6C7(NO)2
CO[C@@H]1C=COC(=C1)C(Cl)(Cl)Cl,5.403324025473557,2.4980640442532605,0.0,H7C7Cl3O2
C1=COC(=C(C1)C(=N)O)C(=O)O,5.358616442897619,1.824544837677968,0.0,H7C7NO4
C1=COC=C([C@@H]1C(=N)O)C(=N)O,5.183003115843894,0.8828428274951876,0.0,H8C7N2O3
C=CC1=C[C@@H](C=CO1)O,4.811607446613925,0.342123127613013,0.0,H8C7O2
CC1=CCC(=CO1)C(=O)O,4.8367937184681065,0.6529454971765518,0.0,H8C7O3
CO[C@@H]1C=COC(=C1)C(=O)O,5.377828169706481,0.9807974364863186,0.0,H8C7O4
CCC1=C(CC=CO1)F,4.362367695373541,-0.5692845904126442,0.0,H9C7OF
C1C(=COC=C1C(=O)O)C(=O)O,5.392872919348156,1.2683807944245928,0.0,H6C7O5
C1C=C(C(=N)O)OC=C1C(=O)O,5.230785764398751,1.0478296356683132,0.0,H7C7NO4
CNC1=COC=C(C1)C#N,3.759667314886974,0.3331304999552231,0.0,H8C7N2O
C=CC1=CCC(=CO1)O,4.018067470458481,0.0967624631026411,0.0,H8C7O2
C1=COC(=C[C@@H]1C(=N)O)C(=O)O,5.276115785612637,1.165744268198614,0.0,H7C7NO4
CC1=COC(=CC1)C(Cl)(Cl)Cl,4.563496418684371,2.5683137845495367,0.0,H7C7Cl3O
CNC1=CCC(=CO1)C#N,3.81149714249259,0.4395575964423188,0.0,H8C7N2O
CNC1=C(CC=CO1)c1ccccc1,3.3138238899369754,-0.113146078524005,0.0,H13C12NO
C=C[C@@H]1C=COC=C1O,4.162405181221038,-0.4454530438273649,0.0,H8C7O2
CC1=COC=C[C@H]1C(=O)O,4.736260063498412,0.0613058612212626,0.0,H8C7O3
COC1=CCC(=CO1)C(=O)O,4.429992180260888,0.7414868803112769,0.0,H8C7O4
CNC1=C[C@@H](C=CO1)c1ccccc1,3.762436995658936,-0.4936955348352057,0.0,H13C12NO
C1C=C(C(=O)O)OC=C1C(=N)O,5.12973193116486,1.0572782580944478,0.0,H7C7NO4
CN[C@@H]1C=COC(=C1)c1ccccc1,4.451043200696949,0.26177000091011,0.0,H13C12NO
CN[C@@H]1C=COC=C1C#N,4.653886894269453,0.5433231610819349,0.0,H8C7N2O
CC1=C(C(=O)O)OC=CC1,4.657947610988776,0.6928848833846133,0.0,H8C7O3
c1ccc(cc1)C1=COC=C[C@H]1O,4.46821013350891,0.2279403322969302,0.0,H10C11O2
C=CC1=COC=C(C1)F,4.337717038791743,0.0887938025403856,0.0,H7C7OF
COC1=COC(=CC1)C(=O)O,4.190399629796593,0.7935909279163753,0.0,H8C7O4
COC1=C(CC=CO1)C(=O)O,4.523786089746499,0.4309324095444027,0.0,H8C7O4
C=C[C@@H]1C=COC(=C1)N,3.8355369851393335,-0.4755181018394068,0.0,H9C7NO
CNC1=COC=C[C@H]1C(=O)O,3.822121990589585,-0.3105043734434729,0.0,H9C7NO3
CNC1=CCC(=CO1)C(=O)O,3.95637668088566,0.632867452424398,0.0,H9C7NO3
CO[C@@H]1C=COC(=C1)c1ccccc1,4.756274765595299,0.373852920945501,0.0,H6C6O
CNC1=CCC=C(C#N)O1,3.7329837529610814,0.5305484585547675,0.0,H8C7N2O
C[C@@H]1C=COC=C1C(=O)O,4.962205519913914,0.6815636197821733,0.0,H8C7O3
COC1=COC(=CC1)C(Cl)(Cl)Cl,4.26097967098176,2.5412675132844016,0.0,H7C7Cl3O2
C#CC1=COC(=CC1)N,3.8771341704883526,0.2642679923425022,0.0,H7C7NO
C1=COC=C([C@@H]1C(=N)O)C(=O)O,5.370881370077404,1.0778632291599934,0.0,H7C7NO4
C=CC1=COC=C(C1)O,3.9244635835089863,0.165946851453191,0.0,H8C7O2
COC1=CCC=C(C(=O)O)O1,4.324958431801496,0.8347376206398622,0.0,H8C7O4
C=CC1=COC=C[C@H]1N,4.30233307770286,0.1871322144921579,0.0,H9C7NO
C1C=C(C(Cl)(Cl)Cl)OC=C1C(=N)O,5.101443082634068,2.484091464293306,0.0,H6C7NCl3O2
C=C[C@@H]1C=COC(=C1)F,4.775650552555453,-0.1839738603051954,0.0,H7C7OF
CNC1=C(C#N)OC=CC1,3.856537313491208,0.2564005118689239,0.0,H8C7N2O
COC1=COC=C(C1)C(=O)O,4.2469197720689404,0.7461546693972196,0.0,H8C7O4
CN[C@@H]1C=COC=C1c1ccccc1,4.31089588522409,0.1190453428858746,0.0,H13C12NO
CCC1=CCC(=CO1)F,4.4081236781508775,-0.7006831003913248,0.0,H9C7OF
CNC1=C(C(=O)O)OC=CC1,3.835778151471095,0.3750663228125632,0.0,H9C7NO3
COC1=COC=C(C1)c1ccccc1,3.919232796329743,0.1131626879665419,0.0,H6C6O
C1=COC(=C(C1)C(=O)O)C(=O)O,5.202562623189442,1.9653628375686825,0.0,H6C7O5
CNC1=COC(=CC1)C(Cl)(Cl)Cl,3.57107700676861,2.6561646910718992,0.0,H8C7NCl3O
CNC1=C[C@@H](C=CO1)C#N,3.950577339058873,-0.3189022065093012,0.0,H8C7N2O
C[C@@H]1C=COC(=C1)C(=O)O,4.866715742563974,0.8112470098436462,0.0,H8C7O3
C1C(=COC=C1C(=N)O)C(=N)O,5.086246058091637,0.8968001993504005,0.0,H8C7N2O3
CNC1=CCC(=CO1)c1ccccc1,3.688174965800136,0.1102705396348029,0.0,H13C12NO
CCC1=C(CC=CO1)N(=O)=O,5.088896827837379,1.7239073930428277,0.0,H9C7NO3
C[C@@H]1C=COC=C1C(Cl)(Cl)Cl,4.830721405641816,2.59688696092926,0.0,H7C7Cl3O
C=CC1=C(F)OC=CC1,4.315566419939932,0.0136886606047483,0.0,H7C7OF
C=CC1=COC=C[C@H]1F,4.739745136993951,0.2249377166332125,0.0,H7C7OF
CO[C@@H]1C=COC=C1C(=O)O,5.506527729461231,0.7474366194597679,0.0,H8C7O4
C1C=C(C(=O)O)OC=C1C(=O)O,5.356507870857604,1.1956471436402354,0.0,H6C7O5
CC1=CCC(=CO1)C(Cl)(Cl)Cl,4.699928474133776,2.831754250897211,0.0,H7C7Cl3O
C=CC1=C(N(=O)=O)OC=CC1,4.84356204407195,2.2402904938076973,0.0,H7C7NO3
CN[C@@H]1C=COC(=C1)C#N,4.587958005134714,0.6370074876027503,0.0,H8C7N2O
CC[C@@H]1C=COC(=C1)F,4.623028044814054,-0.4924651966033706,0.0,H9C7OF
C=CC1=C(N)OC=CC1,3.540274288956061,-0.1518634831176313,0.0,H9C7NO
CCC1=CCC(=CO1)N(=O)=O,5.011536871721182,1.8663021701810067,0.0,H9C7NO3
C=CC1=C(CC=CO1)F,4.372686616766805,0.3104054732790247,0.0,H7C7OF
C1=COC(=C(C1)C(=O)O)C(=N)O,5.08231281309927,1.6444944495829987,0.0,H7C7NO4
C1C=C(C(=N)O)OC=C1C(=N)O,5.053114701613231,0.8639101017266513,0.0,H8C7N2O3
C=CC1=COC=C[C@H]1O,4.508142597145342,0.1799593644587731,0.0,H8C7O2
C=CC1=C(CC=CO1)N(=O)=O,5.07705446895452,2.1052775991134696,0.0,H7C7NO3
C1=COC=C([C@@H]1C(=N)O)C(Cl)(Cl)Cl,5.244345096297911,2.8037689134958783,0.0,H6C7NCl3O2
COC1=C(C(=O)O)OC=CC1,4.427453477877497,0.7281795231097932,0.0,H8C7O4
CCC1=COC=C(C1)F,4.379325862447876,-0.643598264756656,0.0,H9C7OF
C=CC1=COC(=CC1)F,4.442331244859451,0.1597460328681337,0.0,H7C7OF
C=CC1=CCC(=CO1)N(=O)=O,4.887412236766613,1.88222356992228,0.0,H7C7NO3
C=CC1=COC(=CC1)O,4.202878577232331,0.0035161881602108,0.0,H8C7O2
C=CC1=C(CC=CO1)O,3.8672106332247496,0.0708989815353562,0.0,H8C7O2
CNC1=COC(=CC1)C(=O)O,3.6395949311860014,0.6648142510981416,0.0,H9C7NO3
C1=COC(=C[C@@H]1C(=O)O)C(=O)O,5.314118510419212,1.2186693431227469,0.0,H6C7O5
CC1=COC=C(C1)C(=O)O,4.8103934352126085,0.6335437804842514,0.0,H8C7O3
CCC1=C(F)OC=CC1,4.410626937709457,-0.5634828294918406,0.0,H9C7OF
C#CC1=CCC=C(O)O1,4.328498943049999,0.4224924532551086,0.0,H6C7O2
CC1=CCC=C(C(Cl)(Cl)Cl)O1,4.596375476657704,2.5662163048196818,0.0,H7C7Cl3O
CNC1=C[C@@H](C=CO1)C(Cl)(Cl)Cl,3.972128591807268,2.1650499752446195,0.0,H8C7NCl3O
C1=COC(=C(C1)C(=N)O)C(=N)O,4.99541952552463,1.4479196928528837,0.0,H8C7N2O3
C1=CSC(=C[C@@H]1O)C#N,4.949365014815703,0.9603660682420014,0.0,H5C6SNO
CN(C)C1=C[C@@H](C=CO1)C#N,3.929674340386191,-0.3426070225999864,0.0,H10C8N2O
c1ccc(cc1)C1=CCC(=CS1)F,4.185150036833511,0.3368157866549155,0.0,H9C11SF
C1C(=CSC=C1N(=O)=O)C(=O)O,5.222866250316292,2.2116516551701357,0.0,H5C6SNO4
CN(C)C1=COC(=CC1)C(Cl)(Cl)Cl,3.4537390650963062,2.6548019667403424,0.0,H10C8NCl3O
CN(C)C1=C[C@@H](C=CO1)C(Cl)(Cl)Cl,3.951750296642422,2.147418693764485,0.0,H10C8NCl3O
C1=CSC(=C[C@@H]1N)N,3.902389847700397,-0.5523175415459263,0.0,H8C5SN2
C1=CSC(=C[C@@H]1F)C(=O)O,5.170606618897727,1.7812815591583786,0.0,H5C6SO2F
C1C=C(N)SC=C1O,3.700088063401927,-0.8584443174280749,0.0,H7C5SNO
CNC1=CSC(=CC1)N,3.296338709105476,-0.7020385919407999,0.0,H10C6SN2
CNC1=C[C@@H](C=CS1)N,3.811286360390659,-0.5375199665089894,0.0,H10C6SN2
C1=CSC(=C[C@@H]1C#N)O,4.598719473427627,0.0024653770320584,0.0,H5C6SNO
C1=CSC(=C(C1)C(=O)O)F,4.77644536442458,1.0618701002073068,0.0,H5C6SO2F
CNC1=CCC=C(C(=O)O)O1,3.8677974793732575,0.746095443817103,0.0,H9C7NO3
C=CC1=C(C)OC=CC1,4.067188976239413,0.0165890158874391,0.0,H10C8O
CNC1=CSC=C(C1)N,2.9590604688724853,-0.6784583196335006,0.0,H10C6SN2
C1C=C(C#N)SC(=C1)N(=O)=O,5.088773271830723,2.2825416829924507,0.0,H4C6S(NO)2
C1=CSC(=C[C@@H]1C(=O)O)F,4.801604688849329,0.5033772849579692,0.0,H5C6SO2F
C1C=C(N)SC=C1N,3.3691381978329447,-0.6877406124680419,0.0,H8C5SN2
C1=CSC=C([C@@H]1N)N,3.446661980085628,-0.5433732168152345,0.0,H8C5SN2
C1=CSC(=C[C@@H]1C(Cl)(Cl)Cl)O,4.59829454045539,2.275755011478032,0.0,H5C6SCl3O
C1C=C(C(=O)O)SC(=C1)F,4.765082304138195,0.9502762993557554,0.0,H5C6SO2F
C1=CSC=C([C@@H]1C(=O)O)N(=O)=O,5.230947337434918,2.484175180199236,0.0,H5C6SNO4
c1ccc(cc1)[C@@H]1C=CSC=C1F,4.322630157768435,-0.0859740015097485,0.0,H9C11SF
CN(C)[C@@H]1C=COC=C1C#N,4.30891599854076,0.5457382149394108,0.0,H10C8N2O
C=C[C@@H]1C=COC=C1C,4.3775676914006905,-0.3681367647081059,0.0,H10C8O
CN(C)C1=COC=C(C1)C#N,3.6220302169200296,0.3660507913333277,0.0,H10C8N2O
CNC1=CCC(=CS1)N,3.417561737061624,-0.7270827822780119,0.0,H10C6SN2
CNC1=COC=C(C1)C(=O)O,3.755738600591576,0.5187000233741856,0.0,H9C7NO3
C1C(=CSC=C1F)C(=N)O,4.492705067508359,0.748886267837952,0.0,H6C6SNOF
CNC1=C(CC=CO1)C(=O)O,4.23913576523737,0.2302546033475665,0.0,H9C7NO3
c1ccc(cc1)C1=C[C@@H](C=CO1)C(Cl)(Cl)Cl,4.70649602869671,2.138201838862733,0.0,H9C12Cl3O
CN(C)[C]1CC=CO[C]1C#N,3.8148313207017055,0.3178053587758769,0.0,H10C8N2O
CNC1=CSC=C[C@H]1N,3.321513203872746,-0.5948277885458082,0.0,H10C6SN2
C=C[C@@H]1C=COC(=C1)OC,4.153099587274118,-0.3092722991263144,0.0,H5C4O
C1C=C(F)SC=C1C(=O)O,4.8118086339760335,0.996988008520566,0.0,H5C6SO2F
c1ccc(cc1)C1=CCC=C(F)S1,4.27621728674203,0.3464245834453323,0.0,H9C11SF
CNC1=C[C@@H](C=CO1)C(=O)O,4.214202902113902,-0.2519182177315087,0.0,H9C7NO3
CN(C)C1=COC(=CC1)C#N,3.5127962716302137,0.4753401308385947,0.0,H10C8N2O
c1ccc(cc1)C1=COC=C(C1)C(Cl)(Cl)Cl,4.430680889492214,2.752143233186507,0.0,H9C12Cl3O
C1=CSC=C(C1)N,3.3586501876248804,-0.6937476070947013,0.0,H7C5SN
C1=CSC=C(C1)C#N,4.548349737926037,0.7440194329225052,0.0,H5C6SN
CCC1=C(N(=O)=O)OC=CC1,4.892720712441223,1.91544234024841,0.0,H9C7NO3
C1C(=CSC=C1O)C#N,4.22647301578545,0.6052979135361967,0.0,H5C6SNO
C1C=CSC(=C1)C#N,4.515116594551364,0.746643176321959,0.0,H5C6SN
C1=CS[C]([C](C1)C(=O)O)N(=O)=O,4.766924754284991,3.047022497159196,0.0,H5C6SNO4
CN(C)C1=COC=C[C@H]1C#N,3.693319302412056,-0.3065514410176546,0.0,H10C8N2O
C=CC1=CCC(=CO1)OC,3.8972358755396272,0.1259462613994402,0.0,H5C4O
C1C(=CSC=C1N)N,3.034594024110993,-0.6933542801438306,0.0,H8C5SN2
C1=CSC(=C[C@@H]1O)N,4.079443688269384,-0.3301690446227439,0.0,H7C5SNO
C1C(=CSC=C1F)C(=O)O,4.6920605174578665,0.9854950873392228,0.0,H5C6SO2F
C=CC1=COC=C[C@H]1C,4.151388489197052,0.1863796455760167,0.0,H10C8O
CN[C@@H]1C=CSC(=C1)N,3.8471344714977023,-0.6566854682554548,0.0,H10C6SN2
CN[C@@H]1C=CSC=C1N,3.426815770877147,-0.5870373162928444,0.0,H10C6SN2
CNC1=CCC=C(N)S1,3.591532307423768,-0.7489747188323235,0.0,H10C6SN2
C1=CSC(=C(C1)F)C(=O)O,4.620257534095435,1.0154649055126357,0.0,H5C6SO2F
C1C=C(O)SC=C1C#N,4.473606749577447,0.7309990850713803,0.0,H5C6SNO
C1C=C(C#N)SC(=C1)O,4.429163449401676,0.755609866087616,0.0,H5C6SNO
C1C=C(N)SC(=C1)N,3.706648017830594,-0.685547018465877,0.0,H8C5SN2
C1C=C(C(=O)O)SC(=C1)N(=O)=O,5.063099978791433,2.2428336262033555,0.0,H5C6SNO4
C1=CSC(=C(C1)C(=O)N)N(=O)=O,4.609756100509548,2.6215509509253025,0.0,H6C6SN2O3
C1C(=CSC=C1N)C#N,3.73198841223857,0.606683151361358,0.0,H6C6SN2
C1C(=CSC=C1O)C(=O)O,4.249273692833958,0.871628387621604,0.0,H6C6SO3
CNC1=C(CC=CS1)O,3.273416772689961,-0.536821757769212,0.0,H9C6SNO
CO[C@@H]1C=CSC=C1N,3.631665446851548,-0.4243245008787197,0.0,H9C6SNO
CN(C)C1=C(F)SC=CC1,3.383326534470689,-0.1637569477010401,0.0,H10C7SNF
CNC1=C(C(=N)O)SC=CC1,3.7728968747411273,0.5728450853144751,0.0,H10C7SN2O
CNC1=CCC=C([C]([NH])O)S1,3.641066789493925,0.7248411434607989,0.0,H10C7SN2O
CN(C)C1=CSC=C[C@H]1N(=O)=O,3.7919114278643975,1.510440699026367,0.0,H10C7S(NO)2
CCC1=CSC=C(C1)O,3.706858576793457,-0.7113032218716397,0.0,H10C7SO
CCC1=CCC=C(O)S1,3.99282460436516,-0.5037275557209795,0.0,H10C7SO
C1=CSC(=C[C@@H]1N)C#N,4.735589806293865,0.8014455945500232,0.0,H6C6SN2
C1=CSC(=C[C@@H]1N)C(=O)O,4.726312653686909,0.961876629300241,0.0,H7C6SNO2
CNC1=CSC=C[C@H]1C(=N)O,3.644056961389288,-0.02751780736653,0.0,H10C7SN2O
CO[C@@H]1C=CSC=C1OC,4.043314448188175,-0.2809468648832989,0.0,H10C7SO2
C1C=C(C#N)SC=C1N,3.648874456624617,0.648849636958039,0.0,H6C6SN2
C1=CSC=C(C1)C(=O)O,4.528065158768731,0.9056987463714904,0.0,H6C6SO2
C1C=C(C(=N)O)SC=C1N(=O)=O,5.078441582854429,2.079546408412716,0.0,H6C6SN2O3
COC1=C(F)SC=CC1,3.953544226174563,-0.2189799477950145,0.0,H7C6SOF
C1=CSC=C([C@@H]1C(=O)O)N,3.726006705158943,0.2180195352208103,0.0,H7C6SNO2
C1C=C(C(=O)O)SC(=C1)N,4.001155290623137,0.9013485304618372,0.0,H7C6SNO2
COC1=C(O)SC=CC1,3.618559165448096,-0.5040987924679938,0.0,H8C6SO2
C1C=C([C]([NH])O)SC=C1N,3.625074702738493,0.6009455576073379,0.0,H8C6SN2O
C[C@@H]1C=CSC=C1OC,3.775326688051428,-0.4817903094903157,0.0,H10C7SO
C1=CSC(=C[C@@H]1N)C(Cl)(Cl)Cl,4.641716640931554,2.497867566549394,0.0,H6C6SNCl3
C1C=CSC(=C1)C(=O)O,4.53873263077694,0.8744436746797875,0.0,H6C6SO2
C1C=C(N)SC=C1C#N,4.00515904030326,0.7248426482525248,0.0,H6C6SN2
C1C=C(C(=O)O)SC=C1O,4.170859758186998,0.9384547245223076,0.0,H6C6SO3
C1=CSC(=C(C1)C(=O)O)O,4.475591120700846,0.6854602246436117,0.0,H6C6SO3