smiles,IE,EA,charge,formula_pretty
c1(c(n(c2c1cccc2)C)c1ccccc1)Sc1ccccc1,3.826756878386368,0.3754251430087607,0.0,H17C21SN
C1(=O)NC(=O)C=C1,6.585649590080356,2.032906852953238,0.0,H3C4NO2
c1(c2c(cc(c1)OC)cccn2)N[C@@H](CCCN)C,3.598620853872126,0.4945527937212319,0.0,H21C15N3O
N1([C@H]([C@@H](N([Si]1)C(C)(C)C)C)C)C(C)(C)C,3.996548759803409,0.0876241320889676,0.0,SiH26(C6N)2
c1(c(c2n(c1C)cccc2)C=O)c1ccccc1,4.035748483458155,0.703226474580879,0.0,H13C16NO
[C]1(c2c([C](c3c1nsn3)c1sc3c(c1)cccc3)nsn2)c1sc2c(c1)cccc2,3.79490039156517,2.72291223469947,0.0,H5C11(SN)2
c12c3c(Cc1cc(cc2)C(C)(C)C)cc(cc3)C(C)(C)C,4.198588493037823,-0.0556213572621344,0.0,H26C21
N(C(C)C)([N][N]N(C(C)C)C)C,3.2371182288257843,-0.6580973336298483,0.0,H5C2N
[Si]1([Si](CSC[Si]([Si](CSC1)(C)C)(C)C)(C)C)(C)C,4.034637390950229,-0.6543794966768472,0.0,Si2H16C6S
N1([C@@H]2CCC[C@H]1CCC2)C(C)(C)C,3.4170840493785364,-0.8998086359155422,0.0,H23C12N
c1(c(cc(cc1C)C)C)Sc1c(cc(cc1C)C)C,4.2183626737110895,-0.188004328849638,0.0,H22C18S
c12c(C(=O)c3c(C1=O)cc1c(c3)cccc1)cc1c(c2)[CH][CH]C=C1,0.9029195742674349,5.949364269281068,0.0,H6C11O
c12c(C(=C([C]([C]1F)F)F)F)cc1c(c2)cc2c(c1)cc1c(c2)sc(c1)F,0.8759353211076815,4.519753678303095,0.0,H7C20SF5
[B]1(N([C]2C(=CN1c1ccc(cc1)F)CCc1c2cccc1)c1ccc(cc1)F)(F)F,4.313549577470985,1.5377601474625409,0.0,BH17C23(NF2)2
c1(c2c(ccs2)C)c(ccs1)C,4.010589822982729,0.3179239514298388,0.0,H5C5S
c1(N2CCCC2)ccc(cc1)Cl,3.71582480396828,-0.5099217347327794,0.0,H12C10NCl
c1(c(c2n(c1C)cccc2)[N][N]c1ccccc1)c1ccccc1,3.669128605293372,1.28250969323708,0.0,H17(C7N)3
N1([N][N]N2CCCCC2)CCCCC1,3.322833709747647,0.1304477617210069,0.0,H10C5N2
c12c3c(oc1C(=O)c1c(C2=O)cccc1)ccc1c3C=C[CH][CH]1,0.5385877571476159,2.534442614503496,0.0,H10C20O3
[nH]1nncc1,5.996548906855969,-0.7395729380827105,0.0,H3C2N3
C1(c2c(Nc3c1cccc3)cccc2)(C)C,3.6415349967261137,-0.4971864506136625,0.0,H15C15N
C(=S)(SC)C,4.891354469674843,1.361603180490056,0.0,H6C3S2
[C@H]1(c2c3c(ccc2)cccc3)[C@H]2[C@H](C[C@@H](C1)C2)SC,4.242837299848906,0.2666172871664458,0.0,H20C18S
N([N][N]N(CC)CC)(CC)CC,3.164293090650608,-0.5802009948823978,0.0,H5C2N
c1(c2ccccc2)nnc(nn1)c1ccccc1,4.789157880773564,2.09379437335665,0.0,H5C7N2
c12c3c4c5[n]c2ccc2c1c([n]c3ccc4c(=O)c1c5cccc1)c1c(c2=O)cccc1,4.9667964776614095,2.6378529753434123,0.0,H6C14NO
C(C(=O)OCC)(C(=O)OCC)CC,6.116316237342835,0.0522394526175049,0.0,H16C9O4
c1(c(cc([nH]1)C)C)C(=O)OCC,4.412447422824334,0.0202548301200296,0.0,H13C9NO2
c12c(cc(c(c1)OC)CCc1ccc(CC2)cc1)OC,3.603598934366892,-0.3318537993567587,0.0,H10C9O
s1nccn1,6.293751216875171,0.9416484511799356,0.0,H2C2SN2
c1(N2[Si]N(C=C2)c2c(cccc2C)C)c(cccc1C)C,3.8112300029002655,0.2693857216596371,0.0,SiH20(C9N)2
c1(c(nn(c1)C)[N][N]c1ccc(cc1)N(C)C)N(=O)=O,4.090667597703577,1.80368611464437,0.0,H7C6N3O
c1(c(c(C2CCCCC2)ccc1)O)C1CCCCC1,4.474169570797676,-0.5012420570368703,0.0,H26C18O
[Si]([Si](CC)(CC)CC)(CC)(CC)CC,4.439890057188313,-0.7647335713721986,0.0,Si(H5C2)3
c12c(CCCN1)cccc2,3.665658884455843,-0.7151510312782192,0.0,H11C9N
c12c(cc(c(=O)c(c1)C)C)csc2,4.7082508418621725,1.2135677692036553,0.0,H10C11SO
[C@@H]1(C[C@H](CSC1)N(C)C)N(C)C,3.834968142041908,-0.7711085400937008,0.0,H20C9SN2
c1(c(c([nH]c1C)C(=O)OCC)C)C(=O)C,4.756424928889464,0.3076939786093136,0.0,H15C11NO3
c12c([nH]cc1SCC)cccc2,3.83931342180731,-0.2487759614145033,0.0,H11C10SN
c12c3c(cnc1cccc2)cccc3,4.9273561836049335,0.7823922652038164,0.0,H9C13N
c12N(c3c([CH]c1cccc2)cccc3)[O],4.045122943976457,1.5754887665512798,0.0,H9C13NO
c12c(c3c(nc1cccc2)cccc3)C,4.366071646356067,1.2570709541629186,0.0,H11C14N
c12c(c3c(nc1cccc2)cccc3)NC,3.747381339698768,1.1632202327506094,0.0,H6C7N
c1(c(c2ccccc2)ncs1)c1ccccc1,4.473300523551734,0.7363193949764537,0.0,H11C15SN
C(=O)(NC)C,5.794683506071669,-0.7937289444429552,0.0,H7C3NO
P(OCCCC)(OCCCC)OCCCC,4.682557640973391,-0.7337494189327116,0.0,PH27(C4O)3
c1(c(cccc1OC)OC)O,4.320649958151625,-0.961527461373771,0.0,H10C8O3
c12c(nc(n1C)C)cccc2,4.622779172220907,-0.2571917539920831,0.0,H10C9N2
c1(n(c2c(c1)cccc2)C)c1ccccc1,3.955244284593937,0.254477083364327,0.0,H13C15N
N(=O)(=O)OC,7.553088578822644,2.101840371392973,0.0,H3CNO3
[NH]c1c2c(c(cc1)c1c3c(c(cc1)[NH])cccc3)cccc2.[H].[H],4.013619282684521,2.3232892717947835,0.0,H8C10N
N1(C=C[C](C=C1)N)[O],3.885039950986175,0.0525787268721615,0.0,H6C5N2O
C(=C)(C#N)Cl,6.367986348284466,1.825801100190438,0.0,H2C3NCl
S(SCCN)CCN.Cl.Cl,4.706794953913777,2.630126112411381,0.0,H7C2SNCl
c1([C@@H](O)C)occc1,4.834419881697249,-0.4226505926002573,0.0,H4C3O
c1(c(cc(c(c1)Cl)Cl)Cl)Cl,5.443875686878164,1.372947943849431,0.0,HC3Cl2
P(N(C)C)(N(C)C)N(C)C,3.4508884059665434,-1.016147824559448,0.0,PH18(C2N)3
C(C#C)C,6.149733697027477,-0.8317749407955488,0.0,H3C2
C(=O)(CC(=O)OCC)OCC,6.265274577140735,-0.0757331495755351,0.0,H12C7O4
C(=C)(C=C)Cl,5.134850621046644,0.6939530825853581,0.0,H5C4Cl
[C]1(C=CN(C=C1)[O])C#N,5.238838728547853,1.4514760438520171,0.0,H4C6N2O
c12c3c(c(cc1cccc2)N)cccc3,3.728431468039708,0.2417578485215927,0.0,H11C14N
[C@]([C@@](OC(C(C(F)(F)F)(F)F)(F)F)(C(F)(F)F)F)(OC(C(C(F)(F)F)(F)F)(F)F)(C(F)(F)F)F,7.881384874600917,2.215839304824476,0.0,C5OF11
N(CCCCC)(CCCCC)CCCCC,3.838411568516313,-0.9472240096969472,0.0,H33C15N
[C@@H]([C@H](O)c1cc(C)ccc1)(O)c1cc(C)ccc1,4.991305591503624,-0.1885245533652777,0.0,H9C8O
c12c3c(c4c(c1ccs2)scc4)scc3,4.352503881652956,0.0894867649200024,0.0,H2C4S
O(N(=O)=O)CC,6.857355979025305,2.099049438527436,0.0,H5C2NO3
C1(=C(C(=O)NC1=O)Cl)Cl,6.202896052492724,2.336991702920932,0.0,HC4N(ClO)2
N1(C=C[CH]C=C1)[O],4.8341545217241215,0.5076194281351492,0.0,H5C5NO
c1cc(cc(n1)NC)c1ccnc(c1)NC,4.233958217134932,0.7708330190049311,0.0,H7(C3N)2
[C@H]([C@@H](O)c1ccc(cc1)OC)(O)c1ccc(cc1)OC,4.46385191201407,-0.4666360285940754,0.0,H9(C4O)2
N(C(=S)Nc1c(C)cccc1)c1c(C)cccc1,4.413962324104068,0.7655104750389001,0.0,H16C15SN2
C(#N)C#C,7.324822970974855,1.144770100873393,0.0,HC3N
N(N(CC)CC)(CCCC)CCCC,3.2200264157596394,-0.9131718009415636,0.0,H14C6N
c12c(C(=O)OC1=O)cccn2,6.42687755176812,2.1206787389670354,0.0,H3C7NO3
c12c(cnnc1)cccc2,5.473228998485501,0.9220520479189872,0.0,H3C4N
O1COC=C1,4.149037112701626,-1.117985272172882,0.0,H4C3O2
Cc1cc[nH]c1,4.191389468374473,-0.802479461535222,0.0,H7C5N
C(C(F)(F)F)(C(F)(F)F)OP1Oc2c(C(=O)O1)cccc2,5.5090720591630085,1.217303105791507,0.0,PH5C10(O2F3)2
c1(c(cccc1Cl)Cl)O,5.094046840743976,1.611469157630927,0.0,H4C6Cl2O
s1cncc1,5.476240389814484,0.1742333355392475,0.0,H3C3SN
c1(sc(cc1)C#Cc1sccc1)C#Cc1sccc1,3.863850830051524,1.302016309820465,0.0,H8C16S3
N1(c2ccccc2)CCCC1,3.642560212827084,-0.986569537386822,0.0,H13C10N
c12c(c(=O)c(=O)c1=O)cccc2,5.399791100758739,2.817666425753123,0.0,H4(C3O)3
c12c(cc(c(=O)c(c1)C)C)cco2,4.571585122273609,0.939312811025593,0.0,H10C11O2
c12c3c(ccc1cccn2)cccc3,4.668475866833978,0.6355761007831462,0.0,H9C13N
S1CCSCC1,4.74630484652298,-1.0105751535542369,0.0,H4C2S
c12c3c4c(c1cc1c(c2cc2c3cccc2)cccc1)cccc4,4.08574582027868,1.3721584273131158,0.0,H7C12
[Si]1(CSC[Si](CSC1)(C)C)(C)C,3.504026192278252,-0.6779993180083692,0.0,SiH10C4S
c1(cc(n[nH]1)C)C,4.971378575373455,-0.8497153898464602,0.0,H8C5N2
[C@H](CC)(S)C,5.275791151084922,-0.7404910420140367,0.0,H10C4S
c12c(ccnn1)cccc2,4.940136450857244,1.2988918959996227,0.0,H3C4N
Cc1ccc(C)n1C,3.7823008596129513,-0.9408306379176792,0.0,H11C7N
c1(c(ccc(c1)N(=O)=O)F)N(=O)=O,6.650538743125798,2.3471186479961035,0.0,H3C6N2O4F
N1(CN(CN(C1)C)C)C,4.205604512986247,-1.1111324116831385,0.0,H5C2N
c12c(cccc2)ncn1C,4.841320816538064,-0.1750309777820802,0.0,H4C4N
N1(CCCCC1)C,3.768264411474411,-1.1062096492090858,0.0,H13C6N
C1(=O)NCCCCC1,5.525585262964887,-0.7968430233762773,0.0,H11C6NO
N1(CCOCC1)SOC,4.3241398371807005,1.2036239703425964,0.0,H11C5SNO2
N1(C2CCCCC2)CCCCC1,3.6394184163778847,-0.8609765761542802,0.0,H21C11N
C1(N(C(CCC1)(C)C)C)(C)C,3.4114637094768114,-0.9529618728487548,0.0,H21C10N
C[C@@H]1[C@@H](OC(=O)N1C(=O)C)c1ccccc1,5.544770148467796,-0.0232160957515588,0.0,H13C12NO3
C1(=O)C(=O)C(=O)NC(=O)N1,6.431226026151853,3.065717305631188,0.0,HC2NO2
c12c(cccc1N)nccc2,3.960384237445032,0.6425733176634822,0.0,H8C9N2
c12c(ccc(c1)N)nccc2,4.043214892622563,0.6001034659544531,0.0,H8C9N2
c12c(c(ccc1C#Cc1c3c(ccc1)cccc3)C#Cc1c3c(ccc1)cccc3)nsn2,4.055246887635439,1.9849713471718131,0.0,H16C30SN2
c12c(nco1)cccc2,5.286487328379371,0.2745109014555056,0.0,H5C7NO
c12c(N=C[CH]N1[O])cccc2,5.085213135727463,1.545268078472509,0.0,H6C8N2O
S(=O)(=O)(C(C(F)(F)F)(F)F)[CH]N([CH][C@@H]1N(S(=O)(=O)C(C(F)(F)F)(F)F)N1C)CC,4.831204862138838,3.887988840485923,0.0,H11C10S2N3(O2F5)2
n1cnccc1,5.643363460335058,0.5160489787909683,0.0,H2C2N
C1(OC=CO1)(C)C,3.9956401716950496,-1.1378949709764128,0.0,H8C5O2
c12c(C(=O)N(C1=O)C)cccc2,5.887152030683501,1.586038818717134,0.0,H7C9NO2
c12c(nc(o1)C)cccc2,5.076250378005716,0.1380614905971016,0.0,H7C8NO
N1(C=C[C](C=C1)C)[O],4.633827962792202,0.3739128404155054,0.0,H7C6NO
c1(c2ccccc2)scnc1,4.681114964148582,0.6806354394808296,0.0,H7C9SN
c12c(cccc2)cnn1C,4.604899197749182,0.1286404251419299,0.0,H4C4N
C1(=C(C)C)C=CC=C1,4.239956242885091,0.8855357993757935,0.0,H5C4
[C@@H]1(NC(=O)C)C=CN(C=C1)[O],4.378121946472311,0.5615411009417586,0.0,H8C7(NO)2
c12c(non1)cccc2,5.506151673578279,1.6663005124497432,0.0,H4C6N2O
C1C(CC=CC1=O)(C)C,5.549245229250664,0.8195819682856382,0.0,H12C8O
c1(ccc(cc1)Cl)C#C,5.104472466131119,0.5556769606460876,0.0,H5C8Cl
c1(c2cnccc2)ncccc1,5.1716435767117215,0.7347276514734404,0.0,H4C5N
c12c(OP(O1)Cl)cccc2,4.996705211715016,1.8256044952155208,0.0,PH4C6ClO2
C(c1nnc(nn1)C(F)(F)F)(F)(F)F,6.211720617202081,3.013954037070653,0.0,C2N2F3
[C]12C(=CC=CN1[O])C=CC=C2,4.481325947062578,1.0898961629660335,0.0,H7C9NO
c12c([nH]c(=S)o1)cccc2,4.69779648397307,0.6205144093379205,0.0,H5C7SNO
n1(c(=O)n(ccc1=O)C)C,5.192564181148191,0.4600308647783095,0.0,H4C3NO
c1(ccc(cc1)O)CC,4.542695843667024,-0.5422789436637685,0.0,H10C8O
c1(ccc(cc1)C)SCC,4.234218276332831,-0.2063409511632925,0.0,H12C9S
c12c(C(=O)SC1=O)cccc2,6.106073110536817,1.997450574888353,0.0,H4C8SO2
O1C(OC=C1C)(C)C,3.781119256969396,-0.994117371178072,0.0,H5C3O
C1(=CN(C=C[CH]1)[O])OC,4.740355159077444,0.5190248456616247,0.0,H7C6NO2
c1(oc(cc1)C(=O)C)N(=O)=O,6.11267005612317,2.52783450952993,0.0,H5C6NO4
C1C[CH][CH]CC[CH][CH]1,4.325191796627768,-0.0688657772556324,0.0,H3C2
c12c(NCCN1)cccc2,3.1119209374443018,-0.674450044695186,0.0,H5C4N
c12c3c(ccc1nccn2)cccc3,4.869743017182918,1.1688470054265054,0.0,H4C6N
c12c(nc(s1)N)cccc2,4.342079888947046,-0.296549700955802,0.0,H6C7SN2
c12c(cn(n1)C)cccc2,4.387643734864104,0.2828240363665828,0.0,H4C4N
C(C)(C)C1=CCC(=CC1)C,4.6018151411350114,-0.9824768826678336,0.0,H8C5
c12c(c(=O)c3c([nH]2)cccc3)N[C@H]2[C@H](C1=O)[CH][CH]C=C2,1.273309845449694,1.6091446115657164,0.0,H6C8NO
N(Cc1ccccc1)(Cc1ccccc1)C(=S)S,4.660116880747955,0.8030892791444786,0.0,H15C15S2N
N1([N][CH]N([N][CH]1)C)C,3.33284098732438,0.058417394595017,0.0,H2CN
c12CCc3ccc(cc3)CCc(cc1)cc2,4.421889402952365,-0.1701484990393509,0.0,HC
c1([nH]c(=O)ccn1)SC,5.0707506688864665,0.8195725096098614,0.0,H6C5SN2O
[C@]12(C(C)C)OO[C@](CC1)(C=C2)C,4.804792165046456,2.255700833829542,0.0,H8C5O
C(C)(C)[C@@H]1CC=C(C=C1)C,4.0985874573685575,-0.1788923466214327,0.0,H8C5
[C@]12(c3ccccc3)OO[C@](CC1)(C=C2)c1ccccc1,4.076820910873357,2.4899717627973588,0.0,H8C9O
C1(=CN(C=CC1)[O])NC(=O)C,4.778053306866786,0.5428914551972412,0.0,H8C7(NO)2
C1(c2c(Nc3c1cccc3)cccc2)(c1ccccc1)c1ccccc1,3.847425257788564,-0.1423199337790719,0.0,H19C25N
c1(c(cccc1OC)OC)OC,4.294641537873394,-0.7037348162743,0.0,H4C3O
c12c(c(c3c(c1Cl)cc1c(c3)cccc1)Cl)cc1c(c2)cccc1,3.561886949633481,1.9586860755531237,0.0,H6C11Cl
C12=CC=CC1=C([CH][CH]C=C2C)C,3.7262972002859898,3.733247869374827,0.0,HC
c12c3c(N4CCN(CC4)C)c(cc1c(=O)c(cn2[C@@H](CO3)C)C(=O)O)F,3.6587003349501175,0.7872401528380579,0.0,H20C18N3O4F
c12c(c(c3c(c1OC)[C@H]1CC[C@@H]3CC1)OC)[C@@H]1C[C@H]2CC1,3.8717851308043465,-0.9149587997366324,0.0,H24C19O2
c1c(cccc1C)C,4.954941870931725,-0.7414065037122781,0.0,H5C4
[C]1(c2c(C=Cc3c1cccc3)cccc2)[C](N(C)C)N(C)C,2.7442827222235797,0.4648872097037384,0.0,H11C10N
c12c(c(c[nH]2)C(C)(C)C)[nH]cc1C(C)(C)C,3.426020858326956,-0.9132569916204374,0.0,H11C7N
[C@]12(C(=CC=C(O1)C)C(CCC2)(C)C)C,3.669204990368234,-0.3081910166933084,0.0,H20C13O
c1(S(=O)(=O)[N]c2ccc(cc2)[N]S(=O)(=O)c2ccccc2)ccccc1,5.995999427382776,3.234963500830054,0.0,H7C9SNO2
c1(c(c2c(n1C)cccc2)[N][N]c1ccccc1)c1ccccc1,3.924121865673078,1.3011334555136274,0.0,H17(C7N)3
C(C)(C)(C)c1cc(C(C)(C)C)ccc1O,4.420634299641824,-0.9576195012072276,0.0,H22C14O
[Si](Cc1cc(C[Si](C)(C)C)ccc1)(C)(C)C,4.435103517627431,-0.676473880483536,0.0,SiH13C7
c12c(nccn1)cccn2,5.461619977220471,1.5676161594525184,0.0,H5C7N3
O=c1c2c(cc3c(c2)[nH]c2c(c3=O)cc(cc2)C)[nH]c2c1cc(cc2)C,3.9023440046818,1.5376164005989268,0.0,H8C11NO
c1(c(c2sc(cc2)[Si](C)(C)C)ccs1)c1sc(cc1)[Si](C)(C)C,3.934790072389296,0.8439035276620417,0.0,Si2H24(C6S)3
c12c(cc(cc2)N(CC)CC)oc(=O)c(c1C)SC#N,4.184950637254223,1.2499672101563193,0.0,H16C15S(NO)2
n1(c(c(nc1c1ccccc1)c1ccccc1)c1ccccc1)c1ccccc1,4.0302363741117,0.3047922273777659,0.0,H20C27N2
c12c(c([Si](C)(C)C)ccc1[Si](C)(C)C)cccc2,4.453333482191374,0.4430468958722486,0.0,Si(H3C2)4
c1(c2c(cc3c1cccc3)cccc2)Nc1ccc(cc1)SC,3.556822995452967,1.0682628869413748,0.0,H17C21SN
c12c3c4ccc1c([Si](C)(C)C)ccc2ccc3ccc4,4.042100298012519,0.839367398145987,0.0,SiH18C19
[Si]([Si](CCCC)(C)C)(CCCC)(C)C,4.455420576295728,-0.8265546082388027,0.0,Si(H5C2)3
c1(c2c(C(=O)O)cccc2)c2c(oc3c1ccc(=O)c3)cc(cc2)O,4.297506736043578,1.7192007025638305,0.0,H12(C4O)5
CCC1=CSC(=[S]1)[C]1SC=C(C(=O)O)S1,3.3360486815741752,1.1247435999190205,0.0,H8C9(S2O)2
c12c(c(cn2C(=O)OC)C(C)(C)C)n(cc1C(C)(C)C)C(=O)OC,4.004180233224906,0.1367932795561501,0.0,H13C9NO2
C(N1[Si]N(C=C1)C(C)(C)C)(C)(C)C,3.5480509133391025,0.0196710098767654,0.0,SiH20(C5N)2
c12c3N4CCCN(c1cccc2ccc3)CCC4,3.0123675508053567,0.2996613359187905,0.0,H9C8N
c1(c(c(c2n1cccc2)C)c1ccccc1)Sc1ccccc1,3.638512867788086,0.1353361045054044,0.0,H17C21SN
N1(c2c(Sc3c1cccc3)cccc2)C[C@@H](N(C)C)C,3.5817896796012065,-0.2426314595053553,0.0,H20C17SN2
C([Si](C)(C)C)([Si](C)(C)C)([Si](C)(C)C)OC,4.235668155999155,-0.7799805859453044,0.0,Si3H30C11O
C1(=O)C(CCOCCC(C(=O)C(=O)C1=O)(C)C)(C)C,4.956728028888028,2.23858269647244,0.0,H20C14O5
c12C(=NCC(=O)N(c1ccc(c2)Cl)C)c1ccccc1,4.936330644931877,0.9643843869067495,0.0,H13C16N2ClO
c12c3c4c(cc1CCCN2CCC3)cc(c(=O)o4)C#N,4.012419611682708,1.3185657183654258,0.0,H7C8NO
[Mg](OCC)OCC,4.654348217023289,0.2693962116496551,0.0,MgH10(C2O)2
CCC1=CSC(=[S]1)C1=[S]C(=CS1)N(=O)=O,3.53886869308335,2.262408469877846,0.0,H7C8S4NO2
[C]1(C(N(C(N1[O])(C)C)O)(C)C)c1ccccc1,4.403530358458374,0.8383734533723328,0.0,H18C13(NO)2
CC1=C(OCCOCCOC)S[C](C2=[S]C=CS2)S1,3.201366810653417,0.6267556912585861,0.0,H16C12S4O3
C1=C[S]=C([C]2SC=C(O)S2)S1,3.189679213793716,0.7990366850295687,0.0,H4C6S4O
C1=C[S]=C([C]2SC(=C(Cl)S2)C(Cl)(Cl)Cl)S1,3.4704784825677053,2.9930435716029025,0.0,H2C7(SCl)4
CC1=CSC(=[S]1)[C]1SC=C(OC)S1,3.166932798974449,0.7299541107873666,0.0,H8C8S4O
[C]([C][N][Mg][N][C][C](C#N)C#N)(C#N)C#N,4.950879246696422,0.9679615546025162,0.0,Mg(C4N3)2
CC(=O)C1=CSC(=[S]1)C1=[S]C=CS1,3.3585009685572005,1.2348359038311174,0.0,H6C8S4O
c12c3c(ccc1nc1c(c2)cccc1)cccc3,4.519642598713835,1.2085299978149124,0.0,H11C17N
CC(=O)C1=CSC(=[S]1)C1=[S]C(=CS1)N(=O)=O,3.758031627710443,2.285723199901986,0.0,H5C8S4NO3
C=CC1=C(C)S[C](C2=[S]C=CS2)S1,3.212692896102089,0.5014774868264795,0.0,H8C9S4
[Mg].[BH4].[BH4],5.816601981888743,0.0137159236915977,0.0,Mg(BH4)2
CC1=CSC(=[S]1)[C]1SC=C(F)S1,3.292165723659855,1.0648022574328937,0.0,H5C7S4F
COC1=CS[C](C2=[S]C(=CS2)C(=O)O)S1,3.358878276166797,1.1224021474205077,0.0,H6C8S4O3
B1(N(C(C)(C)C)C=CN1C(C)(C)C)SC,3.519399149293895,-0.6390609651411068,0.0,BH23C11SN2
c1(c(c(n2c1cccc2)C)c1ccccc1)Sc1ccccc1,3.6088139960789705,0.2387917804750032,0.0,H17C21SN
C1=C[S]=C([C]2SC(=C(N(=O)=O)S2)C(Cl)(Cl)Cl)S1,3.6580609844473657,2.972349325058167,0.0,H2C7S4NCl3O2
CCC1=C(F)S[C](C2=[S]C=CS2)S1,3.2864093812619104,0.9505021864912124,0.0,H7C8S4F
COC1=C(O)S[C](C2=[S]C=CS2)S1,3.2197453194472474,0.4383293398801471,0.0,H6C7(S2O)2
CCC1=C(OC)S[C](C2=[S]C=CS2)S1,3.1602811040735106,0.3124606837969623,0.0,H10C9S4O
CCC1=C(N(=O)=O)S[C](C2=[S]C=CS2)S1,3.534222781957942,2.1241688492897084,0.0,H7C8S4NO2
C1=C[S]=C([C]2SC(=C(N(=O)=O)S2)N)S1,3.556971041705401,1.74596526461537,0.0,H2C3S2NO
CC(=O)C1=C(F)S[C](C2=[S]C=CS2)S1,3.482104883756256,1.3711044841635158,0.0,H5C8S4OF
C=CC1=C(C(F)(F)F)S[C](C2=[S]C=CS2)S1,3.420678343938198,1.2461640410198016,0.0,H5C9S4F3
COC1=C(N(=O)=O)S[C](C2=[S]C=CS2)S1,3.564908232301241,1.9814014911695268,0.0,H5C7S4NO3
CC(=O)C1=C(Cl)S[C](C2=[S]C=CS2)S1,3.451943113753805,1.5203149374225178,0.0,H5C8S4ClO
C1=C(N)S[C](C2=[S]C(=CS2)N)S1,3.0688363968962222,0.371910014540481,0.0,H3C3S2N
CC1=CSC(=[S]1)[C]1SC=C(C(=O)O)S1,3.3426131775937398,1.12586243134283,0.0,H3C4S2O
C1=C[S]=C([C]2SC(=C(O)S2)C(=O)O)S1,3.4002889084236814,1.0942563872245956,0.0,H4C7S4O3
C1=C[S]=C([C]2SC(=C(C#N)S2)C#N)S1,3.6865316567214905,1.994818570108328,0.0,HC4S2N
CC1=C(C)S[C](C2=[S]C=CS2)S1,3.132060956124042,0.2684201692405623,0.0,H2C2S
CCC1=CS[C](C2=[S]C(=CS2)C)S1,3.12368128393573,0.240957316813001,0.0,H10C9S4
C1=C[S]=C([C]2SC(=C(N(=O)=O)S2)C(=O)O)S1,3.676430124354374,2.691420521916007,0.0,H3C7S4NO4
C1=C(F)[S]=C(C2=[S]C(=CS2)N(=O)=O)S1,3.714203049030039,2.311856446963793,0.0,H2C6S4NO2F
CN(C)C1=CS[C](C2=[S]C(=CS2)OCCOCCOCCOC)S1,3.097399168845732,0.7089785719959765,0.0,H23C15S4NO4
CC1=C(C#N)S[C](C2=[S]C=CS2)S1,3.4264853702567053,0.8935336659138557,0.0,H5C8S4N
C#CC1=C(O)S[C](C2=[S]C=CS2)S1,3.310651554152719,0.9864595349805314,0.0,H4C8S4O
C#CC1=CS[C](C2=[S]C(=CS2)C(=O)O)S1,3.481867227697512,1.142338812701928,0.0,H4C9(S2O)2
CNC1=C(C#N)S[C](C2=[S]C=CS2)S1,3.311525899459957,1.0136737705848646,0.0,H3C4S2N
CC1=C(C(Cl)(Cl)Cl)S[C](C2=[S]C=CS2)S1,3.3257594124384924,3.114026143442606,0.0,H5C8S4Cl3
c1ccc(cc1)C1=C(O)S[C](C2=[S]C=CS2)S1,3.2418201219494223,0.6721306765481132,0.0,H8C12S4O
c1ccc(cc1)C1=C(C#N)S[C](C2=[S]C=CS2)S1,3.4626772645366146,1.408082322124392,0.0,H7C13S4N
CC(=O)C1=C(O)S[C](C2=[S]C=CS2)S1,3.385311041647219,1.0441545178560774,0.0,H3C4S2O
CN(C)C1=C(F)S[C](C2=[S]C=CS2)S1,3.2305395910530934,0.9672617648990128,0.0,H8C8S4NF
COC1=C(C(=O)O)S[C](C2=[S]C=CS2)S1,3.338466823924682,1.0363695450301749,0.0,H6C8S4O3
CNC1=C(Cl)S[C](C2=[S]C=CS2)S1,3.1520807821158088,1.4584596115033492,0.0,H6C7S4NCl
C1=C[S]=C([C]2SC(=C(N)S2)N)S1,2.992148553801235,0.4308350118386443,0.0,H3C3S2N
C(#N)C1=CS[C](C2=[S]C(=CS2)N)S1,3.327685877725889,1.0059039953135651,0.0,H4C7(S2N)2
C1=C[S]=C([C]2SC(=C(Cl)S2)C(F)(F)F)S1,3.5084372365032324,1.7813415575452385,0.0,H2C7S4ClF3
C=CC1=C(OC)S[C](C2=[S]C=CS2)S1,3.2272180280502654,0.5345707473548829,0.0,H8C9S4O
CC1=CSC(=[S]1)[C]1SC=C(C#N)S1,3.421523635633639,1.0456887963679038,0.0,H5C8S4N
C=CC1=C(C(=O)O)S[C](C2=[S]C=CS2)S1,3.3789518990612124,1.5694997232800234,0.0,H6C9(S2O)2
C1=C(C(Cl)(Cl)Cl)S[C](C2=[S]C(=CS2)N(=O)=O)S1,3.812978530238616,2.3183977234817577,0.0,H2C7S4NCl3O2
C#CC1=C(N(C)C)S[C](C2=[S]C=CS2)S1,3.1439651147753467,0.8830623526097043,0.0,H9C10S4N
CNC1=CSC(=[S]1)[C]1SC=C(C(Cl)(Cl)Cl)S1,3.180360376057797,2.846349575405475,0.0,H6C8S4NCl3
C1=C[S]=C([C]2SC(=C(N)S2)C(Cl)(Cl)Cl)S1,3.3090152247983498,2.623462240424124,0.0,H4C7S4NCl3
COCCOC1=C(N(=O)=O)S[C](C2=[S]C=CS2)S1,3.5895188146911097,2.0010936567283357,0.0,H9C9S4NO4
COC1=C(Cl)S[C](C2=[S]C=CS2)S1,3.319540579913882,0.5409065725049005,0.0,H5C7S4ClO
COC1=CS[C](C2=[S]C(=CS2)c2ccccc2)S1,3.2066299140729826,0.5608468269725564,0.0,H10C13S4O
C1=C[S]=C([C]2SC(=C(O)S2)N(=O)=O)S1,3.60769040810701,2.4396391926144134,0.0,H3C6S4NO3
CN(C)C1=C(C(F)(F)F)S[C](C2=[S]C=CS2)S1,3.2584792005378405,0.7140763716975926,0.0,H8C9S4NF3
C1=C[S]=C([C]2SC(=C(F)S2)C#N)S1,3.593438100231288,1.5095727620078834,0.0,H2C7S4NF
CCC1=C(C#N)S[C](C2=[S]C=CS2)S1,3.424404790560948,0.9080213577122778,0.0,H7C9S4N
C1=C(C(F)(F)F)S[C](C2=[S]C(=CS2)N(=O)=O)S1,3.82553577025974,2.322402523548226,0.0,H2C7S4NO2F3
CCC1=CSC(=[S]1)[C]1SC=C(C(F)(F)F)S1,3.3799455309213955,0.4986915336281527,0.0,H7C9S4F3
COCCOC1=C(C#N)S[C](C2=[S]C=CS2)S1,3.452373908055597,1.280791280748963,0.0,H9C10S4NO2
C#CC1=C(OCCOC)S[C](C2=[S]C=CS2)S1,3.275119984894991,1.0221669469188783,0.0,H10C11(S2O)2