smiles,IE,EA,charge,formula_pretty
COc1cc(cc2c1ONO2)C(Br)(Br)Br,4.621796710643684,2.839671852817992,0.0,H6C8Br3NO3
c1cc2c(cc1C(Br)(Br)Br)ON(O)O2,4.901306744891917,2.817498536920175,0.0,H4C7Br3NO3
c1cc(c2c(c1)ON(O)O2)C(Br)(Br)Br,4.955343660630751,3.250817285757512,0.0,H4C7Br3NO3
c1cc2c(c(c1Cl)C(F)(F)F)ONO2,4.756510476044786,0.7721430076722755,0.0,H3C7NClO2F3
C=Cc1cc2c(cc1N(=O)=O)ONO2,4.7822714278314375,2.062839209209051,0.0,H3C4NO2
CN(C)[C]1[C](C(=c2ccn(C)cc2)C=CN1C)C(Cl)(Cl)Cl,2.3393848352803617,3.064360219499213,0.0,H6C5NCl
COCCOCCOc1cc(cs1)OCCOC,3.9650915347461706,-0.0650531684936139,0.0,H20C12SO5
C=Cc1ccc2c(c1NC)ONO2,4.012208655427093,0.3144369105481019,0.0,H10C9(NO)2
COCCOCCOCCOc1ccc(C#N)s1,4.702896234733634,0.7176039194542683,0.0,H17C12SNO4
CN(C)c1ccc(OCCOC)s1,3.1386714284904884,-0.6781602162031048,0.0,H15C9SNO2
c1cc2c(c(c1F)O)ONO2,4.570077598001808,0.154594319251919,0.0,H4C6NO3F
C#Cc1c(ccc2c1ONO2)C(C)(C)C,4.451069666488911,0.5670318765638513,0.0,H13C12NO2
c1cc2c(c(c1N(=O)=O)O)ONO2,4.896429229492787,1.94383822748714,0.0,H4C6N2O5
c1c(cc2c(c1N(=O)=O)ONO2)C(Cl)(Cl)Cl,5.068844432529295,2.276418825023575,0.0,H3C7N2Cl3O4
c1ccc(cc1)c1cccc2c1ON(C(Cl)(Cl)Cl)O2,4.7054908483492905,4.658526359018287,0.0,H8C13NCl3O2
CC(C)(C)c1cc2c(cc1C(F)(F)F)ONO2,4.642054143730638,0.370342233372503,0.0,H12C11NO2F3
c1cc2c(c(c1N(=O)=O)C(F)(F)F)ONO2,5.110190758857788,2.226256813069631,0.0,H3C7N2O4F3
CC(C)(C)c1ccc2c(c1C(F)(F)F)ONO2,4.575992234463774,0.5463383973852616,0.0,H12C11NO2F3
c1cc2c(c(c1Cl)C(=O)O)ONO2,4.659511389354156,1.166864941833046,0.0,H4C7NClO4
COCCOc1ccc2c(c1)ON(O)O2,4.25023511183972,-0.1299193224753252,0.0,H11C9NO5
CN(C)c1cc(cs1)OCCOCCOCCOC,3.320705477484444,-0.6830360363150247,0.0,H23C13SNO4
CN(C)c1ccc2c(c1C#N)ONO2,3.9344068054866512,0.8270771834228072,0.0,H9C9N3O2
CC(C)(C)c1cccc2c1ON(OCCOCCOC)O2,4.228292534900538,-0.469171729563095,0.0,H23C15NO5
C#Cc1cc2c(cc1OCCOCCOCCOC)ONO2,4.147351645029266,0.4784931955160574,0.0,H19C15NO6
C#Cc1cc2c(cc1F)ONO2,4.546377108521119,0.6040240658127005,0.0,H4C8NO2F
COCCOCCOCCOc1cc(cs1)N,3.668729286402231,-0.7011303494204184,0.0,H19C11SNO4
CCc1ccsc1OCCOCCOCCOC,4.060312205112131,-0.5566978777336771,0.0,H22C13SO4
CNc1c(ccc2c1ONO2)OCCOCCOCCOC,3.927895213849842,-0.6737411663729289,0.0,H11C7NO3
c1cc2c(c(c1N(=O)=O)N)ONO2,4.545563406508881,1.910141108242533,0.0,H5C6N3O4
c1cc2c(cc1N(=O)=O)ON(C(=O)O)O2,5.0863840007601535,2.1408304966404104,0.0,H4C7(NO3)2
CC(C)(C)c1ccc2c(c1)ONO2,4.2890383057634605,-0.1892280465512157,0.0,H13C10NO2
CCc1cc2c(cc1OCCOCCOCCOC)ONO2,3.918357675503648,-0.1598415996326365,0.0,H23C15NO6
COCCOCCOc1c(ccc2c1ONO2)OC,4.18420752429447,-0.0141376488267268,0.0,H17C12NO6
C=Cc1cc2c(cc1C)ONO2,4.191449472198292,0.4532489960671229,0.0,H9C9NO2
C=Cc1ccc2c(c1OC)ONO2,4.286773347177222,0.3943233565783886,0.0,H9C9NO3
C=Cc1cc2c(cc1c1ccccc1)ONO2,4.240641460900951,0.456044968484639,0.0,H11C14NO2
CC(C)(C)c1cc(cs1)OCCOCCOC,4.193183403339935,-0.5278823283719247,0.0,H22C13SO3
CN(C)c1cscc1OCCOC,3.522061377761565,-0.5669439324832637,0.0,H15C9SNO2
CCc1cc2c(cc1N(=O)=O)ONO2,4.805042509780469,1.940455479676166,0.0,H4C4NO2
COCCOCCOc1cscc1N,3.747740339485608,-0.6160459494698443,0.0,H15C9SNO3
CCc1cc2c(cc1C(Cl)(Cl)Cl)ONO2,4.582330584833107,2.690891257779731,0.0,H8C9NCl3O2
COCCOc1cc2c(cc1O)ONO2,3.998593368765433,-0.1838641358430321,0.0,H11C9NO5
CCc1cc2c(cc1C(C)(C)C)ONO2,4.219893743991269,-0.2988840431265998,0.0,H17C12NO2
CC(C)(C)c1ccc2c(c1)ON(C(F)(F)F)O2,4.627797120110335,-0.1455804099590749,0.0,H12C11NO2F3
COCCOCCOc1cc2c(cc1O)ONO2,4.016635014236817,-0.0791677051405712,0.0,H15C11NO6
COCCOc1c(ccc2c1ONO2)Cl,4.54079415433589,0.1669949713737879,0.0,H10C9NClO4
C=Cc1cscc1OCCOCCOCCOC,4.620155175756372,0.2163654123374727,0.0,H20C13SO4
COCCOCCOc1cc(c2c(c1)ONO2)OCCOCCOC,4.180708866873465,-0.1521576327344518,0.0,H25C16NO8
C=Cc1ccc(OCCOCCOCCOC)s1,3.904428905546956,0.4194595540408046,0.0,H20C13SO4
C#Cc1ccc2c(c1)ON(C)O2,4.28005579257624,0.423500988775777,0.0,H7C9NO2
CCc1ccc2c(c1N)ONO2,4.148496577606784,-0.5692478006225428,0.0,H5C4NO
C#Cc1cc(OCCOCCOC)sc1,4.329497266132966,0.3124872720414715,0.0,H14C11SO3
CN(C)c1ccc2c(c1)ON(O)O2,3.65336856361464,1.5490080763753211,0.0,H10C8N2O3
c1cc2c(c(c1F)C(Br)(Br)Br)ONO2,4.689559872867539,3.3037421049026308,0.0,H3C7Br3NO2F
CCc1ccc2c(c1)ON(OC)O2,4.235997005578247,-0.3112940995037205,0.0,H11C9NO3
c1cc(c2c(c1)ON(O)O2)C(F)(F)F,5.026631301183079,0.439293259617989,0.0,H4C7N(OF)3
COc1cc2c(cc1N(=O)=O)ONO2,4.4822230437981485,1.984423198334844,0.0,H6C7N2O5
c1cc2c(c(c1C(Br)(Br)Br)C(=O)O)ONO2,4.826569968857802,3.459950702957576,0.0,H4C8Br3NO4
COc1cc2c(cc1OC)ONO2,4.212455550312006,-0.0521293367004545,0.0,H9C8NO4
CCc1c(ccc2c1ONO2)C(C)(C)C,4.269985490716499,-0.4244192536374611,0.0,H17C12NO2
c1csc(c1Cl)Cl,5.01862158953154,1.3686398293881212,0.0,H2C4SCl2
C=Cc1ccc2c(c1)ON(N(=O)=O)O2,4.369158723436703,3.271644021786051,0.0,H3C4NO2
COCCOCCOc1cc2c(cc1Cl)ONO2,4.429179757187375,0.1537360830858234,0.0,H14C11NClO5
CCc1ccc2c(c1)ON(OCCOCCOC)O2,4.120801484188268,-0.3724981400031537,0.0,H19C13NO5
COCCOCCOCCOc1cscc1O,4.461406922915193,-0.4221697239103377,0.0,H18C11SO5
CCc1cc2c(cc1C)ONO2,4.195577093543397,-0.2769471778578007,0.0,H11C9NO2
COCCOCCOc1cc(cs1)OC,3.9321394359772968,-0.0922709742430014,0.0,H16C10SO4
COCCOCCOCCOc1ccc(N)s1,3.221203460494144,-0.4832918418200278,0.0,H19C11SNO4
CN(C)c1cc(OCCOCCOC)sc1,3.470785163038818,-0.7304745887580792,0.0,H19C11SNO3
CCc1cc(c2c(c1)ONO2)C(C)(C)C,4.227151602391677,-0.3406691557342127,0.0,H17C12NO2
COCCOCCOCCOc1ccc(c2c1ONO2)OC,4.251045801554573,-0.0866089628201733,0.0,H21C14NO7
Cc1c(ccc2c1ONO2)Cl,4.460909643037303,1.1924528863652086,0.0,H6C7NClO2
CC(C)(C)c1ccc2c(c1)ON(OC)O2,4.213113184153917,-0.3436401136736093,0.0,H15C11NO3
c1cc2c(c(c1Cl)N(=O)=O)ONO2,4.86015235133309,2.1955516725553026,0.0,H3C6N2ClO4
CC(C)(C)c1ccc2c(c1OC)ONO2,4.348700157411804,-0.1745135342665889,0.0,H15C11NO3
c1ccc(cc1)c1cc2c(cc1Cl)ONO2,4.463757640898256,0.3230952164172778,0.0,H8C12NClO2
c1ccc(cc1)c1cc2c(cc1c1ccccc1)ONO2,4.249847703367413,0.3411799837682339,0.0,H13C18NO2
CC(C)(C)c1ccc(OCCOC)s1,3.977458763119648,-0.2033538378222146,0.0,H18C11SO2
COCCOCCOCCOc1cc2c(cc1Cl)ONO2,4.528500208938203,0.1699365328473505,0.0,H18C13NClO6
CCc1ccc2c(c1F)ONO2,4.518616566279524,0.1499160782746913,0.0,H8C8NO2F
COCCOCCOCCOc1cc(OCCOC)sc1,3.926632771626464,-0.0793918317052884,0.0,H24C14SO6
C#Cc1ccc2c(c1O)ONO2,4.537776621392913,0.4059563701190201,0.0,H5C8NO3
COCCOCCOCCOc1ccsc1,4.380315964973852,-0.3959254680034063,0.0,H18C11SO4
CNc1ccc(OCCOCCOC)s1,3.189265701441036,-0.4156898634668322,0.0,H17C10SNO3
COCCOCCOCCOc1ccc2c(c1OC)ONO2,4.31739911480472,-0.0028485354763687,0.0,H21C14NO7
C=Cc1ccc2c(c1OCCOCCOCCOC)ONO2,4.30787707879208,0.2728431783230918,0.0,H21C15NO6
COCCOc1cc2c(cc1C(F)(F)F)ONO2,4.430253850373992,0.3856120755786834,0.0,H10C10NO4F3
c1c(c(cc2c1ONO2)C(Cl)(Cl)Cl)C(Cl)(Cl)Cl,4.933768078169669,2.8373341963102576,0.0,H3C8N(Cl3O)2
CC(C)(C)c1c(ccc2c1ONO2)C(F)(F)F,4.639483672051574,0.3525003793307406,0.0,H12C11NO2F3
c1c(c(cc2c1ONO2)N(=O)=O)N(=O)=O,5.212048051731108,2.654451949425129,0.0,HC2NO2
Cc1cc2c(cc1C)ONO2,4.188535603739728,-0.253903331722904,0.0,H9C8NO2
CC(C)(C)c1cccc2c1ON(OCCOC)O2,4.231922743035829,-0.4307723688965779,0.0,H19C13NO4
CC(=O)c1ccc2c(c1C#N)ONO2,4.971607404060341,1.5716808136581677,0.0,H6C9N2O3
c1cc2c(c(C#N)c1N)ONO2,4.074632516956262,0.7490872456797661,0.0,H5C7N3O2
C=Cc1ccc2c(c1)ON(N)O2,3.1269750450788707,3.144083487020544,0.0,H4C4NO
CCc1cc(c2c(c1)ONO2)N(C)C,3.8429777584620752,-0.6086453537558554,0.0,H7C5NO
C=Cc1cc2c(cc1OCCOC)ONO2,3.902718074130098,0.4694816341812839,0.0,H13C11NO4
C#Cc1ccc2c(c1NC)ONO2,4.114505814877338,0.3769975392147899,0.0,H8C9(NO)2
c1cc(O)sc1F,4.308058178715873,0.1700508832487686,0.0,H3C4SOF
c1cc2c(c(C#N)c1O)ONO2,4.523996071833244,0.8571483748797619,0.0,H4C7N2O3
c1ccc(cc1)c1cccc2c1ON(C(F)(F)F)O2,4.794162203933956,0.5093773542808777,0.0,H8C13NO2F3
CCc1ccc2c(c1OCCOCCOC)ONO2,4.384973299447301,-0.2171089529059826,0.0,H19C13NO5
c1cc(c2c(c1)ON(C(Br)(Br)Br)O2)N(=O)=O,5.131276901048841,4.771155838732375,0.0,H3C7Br3(NO2)2
COCCOCCOc1ccc2c(c1)ON(N(=O)=O)O2,4.257339522524125,3.044067240183358,0.0,H14C11N2O7
C#Cc1cc2c(cc1Cl)ONO2,4.565655699139461,0.6403700445676805,0.0,H4C8NClO2
C=Cc1ccc2c(c1C#C)ONO2,4.366681766401234,0.7485927930625622,0.0,H7C10NO2
c1c(csc1Cl)Cl,5.011234724677342,1.351192007068312,0.0,H2C4SCl2
Cc1c(ccc2c1ONO2)OCCOCCOC,4.129958868610265,-0.2743597725369908,0.0,H17C12NO5
C#Cc1ccc2c(c1F)ONO2,4.660344444100337,0.5859339051727148,0.0,H4C8NO2F
CCc1cc2c(cc1F)ONO2,4.386243907808966,0.008209229412023,0.0,H8C8NO2F
COCCOCCOCCOc1cscc1N(=O)=O,5.054434913597651,1.9471383860232887,0.0,H17C11SNO6
CCc1ccc2c(c1N(=O)=O)ONO2,4.679000375673786,2.0063234942223063,0.0,H4C4NO2
CN1Oc2ccc(cc2O1)F,4.295279887006108,-0.0725726344157009,0.0,H6C7NO2F
c1ccc(cc1)c1cccc2c1ON(N)O2,3.31937279179474,0.52264373386206,0.0,H5C6NO
CN1Oc2ccc(cc2O1)OCCOCCOCCOC,3.9580744045684697,-0.2645850951470492,0.0,H21C14NO6
c1ccc(cc1)c1cc2c(cc1C(F)(F)F)ONO2,4.686325927833968,0.5229918844721397,0.0,H8C13NO2F3
CC(C)(C)c1c(ccc2c1ONO2)c1ccccc1,4.3264960654683815,0.0427896764282196,0.0,H17C16NO2
c1cc2c(c(C#N)c1C(Cl)(Cl)Cl)ONO2,5.030529225799546,3.012098751308804,0.0,H3C8N2Cl3O2
CCc1cc2c(cc1CC)ONO2,4.205060973754007,-0.3123969496813514,0.0,H13C10NO2
c1cc2c(c(c1Cl)F)ONO2,4.709671061130939,0.5511823094326247,0.0,H3C6NClO2F
COCCOCCOCCOc1ccc2c(c1)ON(C(=O)O)O2,4.282217296194721,0.6205226761609084,0.0,H19C14NO8
c1c(c(cc2c1ONO2)C(F)(F)F)C(F)(F)F,4.999390202488575,0.851438580278773,0.0,H3C8N(OF3)2
C=Cc1ccc2c(c1F)ONO2,4.449045343617035,0.544914167157549,0.0,H6C8NO2F
C=Cc1cc2c(cc1C(Br)(Br)Br)ONO2,4.553756748785963,2.984133144048974,0.0,H6C9Br3NO2
CN(C)c1ccc(OCCOCCOC)s1,3.168362607533345,-0.6505362234078347,0.0,H19C11SNO3
c1cc2c(c(c1F)N)ONO2,4.358959148452049,-0.0504974972231138,0.0,H5C6N2O2F
CC(C)(C)c1cccc2c1ON(OC)O2,4.267836104323214,-0.4145549800472508,0.0,H15C11NO3
COCCOCCOc1c(ccc2c1ONO2)OCCOC,4.163863812076306,-0.049633617416839,0.0,H21C14NO7
CN1Oc2ccc(cc2O1)Cl,4.3208266144552905,1.1788241708869465,0.0,H6C7NClO2
c1c(c(cc2c1ONO2)F)Cl,4.59413983017439,1.3267680185941573,0.0,H3C6NClO2F
CC(C)(C)c1ccc2c(c1N(=O)=O)ONO2,4.67843087134097,2.012189060400124,0.0,H6C5NO2
COc1c(ccc2c1ONO2)Cl,4.530434859412344,1.330706205169554,0.0,H6C7NClO3
C=Cc1ccc2c(c1)ON(OCCOCCOCCOC)O2,4.027919311172445,0.3874629068355717,0.0,H21C15NO6
COCCOCCOCCOc1ccc2c(c1N)ONO2,4.112396434663969,-0.2962375891023838,0.0,H20C13(NO3)2
Cc1cscc1OCCOCCOCCOC,4.286985612297576,-0.4080032897130876,0.0,H20C12SO4
COCCOCCOCCOc1cc(C(=O)O)sc1,4.708055309021438,1.032120147299429,0.0,H18C12SO6
C#Cc1ccc2c(c1N(C)C)ONO2,4.047031229345157,0.4115519177299576,0.0,H5C5NO
COCCOCCOCCOc1ccc2c(c1)ON(O)O2,4.207229642140737,-0.1442262572149046,0.0,H19C13NO7
CC(C)(C)c1cc2c(cc1F)ONO2,4.383626831198489,-0.0243861172297328,0.0,H12C10NO2F
c1cc2c(c(c1C(=O)O)C(Cl)(Cl)Cl)ONO2,4.827226171416987,2.812709510269633,0.0,H4C8NCl3O4
COc1ccc2c(c1)ON(N(=O)=O)O2,4.215263835876248,3.254860513695894,0.0,H6C7N2O5
c1cc2c(cc1N(=O)=O)ON(C(Cl)(Cl)Cl)O2,5.224039610622276,2.122938946443901,0.0,H3C7N2Cl3O4
CC(C)(C)c1c(ccc2c1ONO2)N(=O)=O,4.704256545411772,1.846718945392786,0.0,H6C5NO2
COCCOCCOc1ccc2c(c1O)ONO2,4.264460845084249,-0.0148829767953428,0.0,H15C11NO6
c1ccc(cc1)c1ccc2c(c1C(=O)O)ONO2,4.491207804645091,1.043267312464741,0.0,H9C13NO4
CC(C)(C)c1ccc2c(c1)ON(C(=O)O)O2,4.503649842559389,0.7162280084827217,0.0,H13C11NO4
CC(C)(C)c1c(ccc2c1ONO2)OCCOC,4.043103048390185,-0.1194811090957954,0.0,H19C13NO4
CC(C)(C)c1ccc2c(c1)ON(OCCOCCOCCOC)O2,4.193304142970737,2.3629529413861747,0.0,H27C17NO6
C=Cc1cc2c(cc1OC)ONO2,3.8878617333990406,0.4703276361011377,0.0,H9C9NO3
COCCOc1ccc2c(c1N(=O)=O)ONO2,4.553489742485544,2.055801300424355,0.0,H10C9(NO3)2
CN(C)c1cn(C)cc(c1=c1ccn(C)cc1)C(Cl)(Cl)Cl,2.3639461024737103,3.25132302834536,0.0,H6C5NCl
C#Cc1cc(cs1)OCCOCCOCCOC,4.3686531059880505,0.6504242182432791,0.0,H18C13SO4
CCc1cc2c(cc1OC)ONO2,3.977120071188984,-0.2010387994108895,0.0,H11C9NO3
Cc1cc(cs1)OCCOCCOCCOC,4.173115764229442,-0.3935639525501755,0.0,H20C12SO4
CC(C)(C)c1c(ccs1)OCCOC,4.105403783852671,-0.5053231088226311,0.0,H18C11SO2
CCc1ccc2c(c1)ON(C)O2,4.10389424865898,-0.4404207800238509,0.0,H11C9NO2
COCCOCCOc1c(ccc2c1ONO2)Cl,4.509200491398223,1.3306913123757114,0.0,H14C11NClO5
COCCOCCOc1cc(cs1)Cl,4.377500642550876,0.0954259759906563,0.0,H13C9SClO3
COCCOCCOc1ccc(C(=O)O)s1,4.667545087844337,0.860395955585409,0.0,H14C10SO5
CC(C)(C)c1cc(cc2c1ONO2)OCCOCCOC,3.993969204971654,-0.2546778030831773,0.0,H23C15NO5
c1c(c(cc2c1ONO2)N(=O)=O)C(F)(F)F,5.113394074801908,2.278273267229088,0.0,H3C7N2O4F3
CC(C)(C)c1cc2c(cc1N(=O)=O)ONO2,4.735675598347006,1.8870499333512272,0.0,H6C5NO2
c1cc2c(cc1N)ON(C(=O)O)O2,3.923885983794753,0.6929607868165477,0.0,H6C7(NO2)2
Cc1cc(cc2c1ONO2)OCCOC,4.038913635432982,-0.2933903558863675,0.0,H13C10NO4
C=Cc1ccc2c(c1)ONO2,4.294089846110728,0.4428473112544453,0.0,H7C8NO2
Cc1cc(cc2c1ONO2)OCCOCCOCCOC,4.025648074917262,-0.2026339116840971,0.0,H21C14NO6
C#Cc1cc(c2c(c1)ONO2)OCCOCCOC,4.377743629321776,0.4826383192281356,0.0,H15C13NO5
c1ccc(cc1)c1c(ccc2c1ONO2)Cl,4.508280811927397,0.449319514411036,0.0,H8C12NClO2
CCc1cc(cs1)OCCOCCOC,4.22736991660131,-0.410667591683159,0.0,H18C11SO3
CN(C)[N]Oc1ccc(cc1[O])Cl,3.599678073283576,2.396482767753332,0.0,H9C8N2ClO2
COCCOc1cc2c(cc1C(Cl)(Cl)Cl)ONO2,4.376876095027546,2.863370451117225,0.0,H10C10NCl3O4
c1c(csc1F)Cl,5.033678450954175,0.4757185622707767,0.0,H2C4SClF
CC(C)(C)c1cscc1C(C)(C)C,4.693256974792893,-0.7839057246696028,0.0,H20C12S
COCCOCCON1Oc2ccc(cc2O1)Cl,4.296919503498065,-0.0005411189689765,0.0,H14C11NClO5
CNc1cc(OCCOCCOCCOC)sc1,3.568265681694902,-0.5845463916615699,0.0,H21C12SNO4
COCCOCCOCCOc1cscc1C(Cl)(Cl)Cl,4.787188448719098,2.831216375148506,0.0,H17C12SCl3O4
COCCOCCOc1c(ccc2c1ONO2)F,4.506453134841285,0.1425841885844421,0.0,H14C11NO5F
c1cc2c(cc1N(=O)=O)ONO2,4.903568397284834,2.083521820158785,0.0,H2C3NO2
COc1ccc2c(c1c1ccccc1)ONO2,4.2202039809832055,0.3783289105900622,0.0,H11C13NO3
COc1cc2c(cc1C(Cl)(Cl)Cl)ONO2,4.370013849331008,2.952057616517413,0.0,H6C8N(ClO)3
CC(=O)c1cc2c(cc1OCCOC)[nH]s[nH]2,3.5428206377415337,0.9703445343999192,0.0,H14C11SN2O3
CN(C)c1cscc1c1ccccc1,3.7075647530233256,0.1022427568983403,0.0,H13C12SN
CCc1ccc2c(c1N(C)C)ONO2,4.007471863716637,-0.1771608508883217,0.0,H7C5NO
Cc1cc2c(cc1c1ccccc1)ONO2,4.253338828677078,0.1719017634874036,0.0,H11C13NO2
C=Cn1c2ccc(cc2[nH]s1)c1ccccc1,3.37362421759608,2.7309376228236943,0.0,H12C14SN2
C#Cc1ccc2c(c1C(F)(F)F)ONO2,4.694012185931205,0.8878152316952765,0.0,H4C9NO2F3
c1cc2c(cc1F)ON(N)O2,3.3736338368195,0.086966264232251,0.0,H5C6N2O2F
c1cc2c(cc1F)ON(C(Br)(Br)Br)O2,4.748274632316315,2.52265084158862,0.0,H3C7Br3NO2F
COCCOCCOCCOc1ccc2c(c1C(F)(F)F)ONO2,4.395654883280804,0.479356318844657,0.0,H18C14N(O2F)3
Cc1ccc2c(c1)n(OCCOC)s[nH]2,3.8475657855356986,1.7919189979598742,0.0,H14C10S(NO)2
CNc1ccc2c(c1O)ONO2,3.661394939515594,-0.1391976941507891,0.0,H8C7N2O3
COCCOCCOCCOc1cc2c(cc1OC)ONO2,3.9150781540825847,-0.0843309618270722,0.0,H21C14NO7
c1ccc(cc1)n1c2ccccc2n(N(=O)=O)s1,3.930145568084845,3.490013964992249,0.0,H9C12SN3O2
CCc1ccc2c(c1)ON(C(Cl)(Cl)Cl)O2,4.565035402041394,2.293978586816229,0.0,H8C9NCl3O2
COCCOCCOCCOn1c2ccccc2[nH]s1,3.8915981965416,1.681669904793671,0.0,H20C13S(NO2)2
CNc1cc(cs1)OCCOCCOC,3.373305169561354,-0.4621338235032453,0.0,H17C10SNO3
CC(C)(C)c1ccc(NC)s1,3.353680839261506,-0.4425695024605374,0.0,H15C9SN
Cc1ccc2c(c1O)ONO2,4.386930527214281,-0.1227821492851943,0.0,H7C7NO3
CNc1ccc2c(c1C#N)ONO2,3.983084240533208,0.734132345308899,0.0,H7C8N3O2
COCCOCCOCCOc1cc(c2c(c1)ONO2)N,3.8681978105320014,-0.2544192105800902,0.0,H20C13(NO3)2
COCCOn1c2cccc(c2[nH]s1)N,3.9562735851191975,1.8258491745415089,0.0,H13C9SN3O2
C#Cc1ccc2c(c1)ON(C(Br)(Br)Br)O2,4.68039241208462,2.517992127535399,0.0,H4C9Br3NO2
c1ccc(cc1)c1ccc2c(c1O)ONO2,4.39619095842645,0.183667312792386,0.0,H9C12NO3
C#Cc1ccc(c(c1)[O])O[N]N(C)C,3.5188262897987443,2.4075509246737057,0.0,H5C5NO
CC(=O)n1c2cc(ccc2[nH]s1)OCCOCCOC,3.617578880790097,2.84398691978422,0.0,H18C13S(NO2)2
CCn1c2cccc(c2[nH]s1)N(C)C,3.1863856812284213,1.5521903960194323,0.0,H15C10SN3
Cc1cc2c(cc1C(C)(C)C)ONO2,4.215033869751641,-0.2514448022397118,0.0,H15C11NO2
c1ccc(cc1)c1ccc2c(c1)ON(C(=O)O)O2,4.4760673716205925,0.4781184403378575,0.0,H9C13NO4
COCCOc1cc2c(cc1N)ONO2,3.6174096232585726,-0.170360075712233,0.0,H12C9(NO2)2
CCc1cc2c(cc1N(C)C)ONO2,3.674040475046786,-0.2370371200762746,0.0,H7C5NO
CC(C)(C)c1ccc(N(C)C)s1,3.31620635815998,-0.7089488711702869,0.0,H17C10SN
CNc1ccc2c(c1C(=O)O)ONO2,3.808048760821839,0.8469828440589482,0.0,H4C4NO2
CC(C)(C)c1ccc2c(c1OCCOCCOC)ONO2,4.374048554689216,-0.1798101430562382,0.0,H23C15NO5
CC(=O)n1c2cccc(c2[nH]s1)C(C)(C)C,3.7497068708195,2.146666543905303,0.0,H16C12SN2O
C#Cn1c2ccc(cc2[nH]s1)OCCOC,3.4915637730278832,3.294954868744389,0.0,H12C11S(NO)2
c1ccc(cc1)c1ccc2c(c1)ON(C(Br)(Br)Br)O2,4.460794947075192,2.492995665897616,0.0,H8C13Br3NO2
c1c(c(cc2c1ONO2)F)C(Br)(Br)Br,4.718372450728202,3.2463340007758235,0.0,H3C7Br3NO2F
c1ccc(cc1)c1cc2c(cc1F)ONO2,4.400830401414714,0.394099074908445,0.0,H8C12NO2F
CN(C)c1ccc2c(c1)[nH]sn2OCCOCCOCCOC,3.5886037584292354,1.5197754418055411,0.0,H25C15SN3O4
C#Cc1ccc2c(c1OCCOCCOC)ONO2,4.586529750345653,0.4544828228004918,0.0,H15C13NO5
CNc1cc(OCCOCCOC)sc1,3.57556620209798,-0.70499120668901,0.0,H17C10SNO3
CC(=O)n1c2cccc(c2[nH]s1)OCCOC,3.406173819179094,2.446748985699378,0.0,H14C11SN2O3
COCCOCCOCCOc1cc(C#N)c2c(c1)ONO2,4.535080909326643,0.8954908283718397,0.0,H9C7NO3
Cn1c2cc(ccc2[nH]s1)c1ccccc1,3.26292135826734,2.031247840184369,0.0,H12C13SN2
c1ccc(cc1)c1ccc2c(c1)ON(C(F)(F)F)O2,4.54589834326689,0.3980398111940304,0.0,H8C13NO2F3
C#Cc1ccc2c(c1N(=O)=O)ONO2,4.779338141337211,2.2294353231132846,0.0,H2C4NO2
C#Cc1cc2c(cc1OCCOC)ONO2,4.3454143637623925,0.4852559482293146,0.0,H11C11NO4
COCCOCCOCCOc1cscc1C(=O)O,4.799687837339297,0.7070907822431765,0.0,H18C12SO6
COCCOCCOc1ccsc1OCCOCCOC,3.883021024129994,-0.4520204215281409,0.0,H24C14SO6
CNc1cscc1OCCOCCOCCOC,3.642216037807521,-0.8264196669828379,0.0,H21C12SNO4
CC(=O)c1cc2c(cc1OCCOCCOC)[nH]s[nH]2,3.546068204830226,0.9648009578100756,0.0,H18C13S(NO2)2
C=Cn1c2c(cccc2OCCOCCOC)[nH]s1,3.2560932084394154,1.9195275608159137,0.0,H18C13SN2O3
CCn1c2ccc(cc2[nH]s1)c1ccccc1,3.2291224113047066,1.958880813815631,0.0,H14C14SN2
CC(C)(C)c1ccc2c(c1)ON(N)O2,3.238573384792835,-0.2975433055929897,0.0,H7C5NO
COCCOCCOn1c2ccccc2[nH]s1,3.897638772732171,1.726155817986728,0.0,H16C11SN2O3
COCCOCCOCCOc1ccc2c(c1)ON(N(=O)=O)O2,4.277642450325947,3.161234231776325,0.0,H18C13(NO4)2
COCCOCCOc1cc(c2ccccc2)sc1,4.063377872263663,0.5418787264075946,0.0,H18C15SO3
COc1ccc2c(c1C(=O)O)ONO2,4.204166306995466,1.0080923239162076,0.0,H7C8NO5
COCCOn1c2ccc(cc2[nH]s1)O,3.871630464019836,1.625648266899225,0.0,H12C9SN2O3
Cc1ccc2c(c1)ON(C(F)(F)F)O2,4.644157629959954,-0.0951247490760578,0.0,H6C8NO2F3
COCCOCCOCCOc1ccc2c(c1C(=O)O)ONO2,4.190592076867324,1.0008498943730957,0.0,H19C14NO8
COCCOCCOCCOc1cc(cs1)OCCOC,3.965123567979026,-0.1023800904134986,0.0,H24C14SO6
CCc1cc2c(cc1OCCOCCOC)ONO2,4.013240848523855,-0.2539515829506853,0.0,H19C13NO5
CNc1cc(cc2c1ONO2)OCCOCCOC,3.8394841623572575,-0.5572713630848738,0.0,H18C12N2O5
CC(=O)c1ccc(c2c1[nH]s[nH]2)C(C)(C)C,3.327393510460388,0.8994563759930316,0.0,H16C12SN2O
CNc1cccc2c1[nH]sn2OCCOCCOC,3.759497371634643,1.8409104714242857,0.0,H19C12S(NO)3
CN(C)[N]Oc1ccc(cc1[O])F,3.596412584769132,2.3707658494218777,0.0,H9C8N2O2F
C#Cc1ccc2c(c1)ON(N(=O)=O)O2,4.489109855932474,3.300058385547891,0.0,H2C4NO2
c1ccc(cc1)c1ccc2c(c1)ONO2,4.300945397806208,0.336381180035096,0.0,H9C12NO2
Cc1ccc2c(c1c1ccccc1)ONO2,4.311743797386589,0.2594555747542473,0.0,H11C13NO2
CC(C)(C)c1ccc2c(c1F)ONO2,4.530205657925398,0.1338175160904939,0.0,H12C10NO2F
c1cc2c(c(c1O)C(=O)O)ONO2,4.348374295646499,0.9499629112848198,0.0,H5C7NO5
COCCOc1c(ccc2c1ONO2)OC,4.184158549241692,-0.0119850433278769,0.0,H13C10NO5
Cc1ccc2c(c1)ONO2,4.302328111623501,-0.1579653148532087,0.0,H7C7NO2
Cc1ccc2c(c1C(=O)O)ONO2,4.487852646461397,0.94191588738031,0.0,H7C8NO4
C#Cc1ccc2c(c1)ON(C(F)(F)F)O2,4.781491097864636,0.5446189671834873,0.0,H4C9NO2F3
COCCOc1cc2c(cc1F)ONO2,4.276875002212909,0.1046022968126636,0.0,H10C9NO4F