smiles,IE,EA,charge,formula_pretty
c1cc(cc(n1)C#C)c1ccncc1C#C,5.508015266970324,1.3046443498948066,0.0,H4C7N
C1C[C@H]([C@H](SC1)N(C)C)C,3.9081168562275703,-0.905712202786526,0.0,H17C8SN
CN1C(=C[C](C=C1C)C)C.S(=O)(=O)(OC)[O],5.532877562809153,1.2176116801725585,0.0,H17C10SNO4
O=C1c2c3c(c4c1cccc4)cccc3ccc2,4.611087904546002,1.6859398770444387,0.0,H10C17O
Clc1nc2c(cc1)cccc2,5.190035391873243,0.909023773392255,0.0,H6C9NCl
c1cc2c(cc1)C(=O)c1c(C2=O)cc(cc1C)C(=O)O,5.849386338797194,2.2842988064054226,0.0,H5(C4O)2
Cc1c2c(oc1)cccc2,4.563679834301729,-0.1406087622348422,0.0,H8C9O
C[C@@H]1c2c(N=C(O1)C)cccc2,4.554141694586724,0.1713405695096299,0.0,H11C10NO
c1cc(ccn1)c1c(cnc(c1)C=C)C=C,4.700943964876933,1.117887808768137,0.0,H6C7N
C([C@@](C=C)(OC)C)C1(C)C(=O)CCC1=O,5.102623939679324,0.5463001300173347,0.0,H6C4O
O=N(=O)C,7.274055568314543,1.6964211796481323,0.0,H3CNO2
C1CC(CSC1)(C#N)C#N,5.267966863235051,0.6875658714612656,0.0,H8C7SN2
Cc1cc2c([nH]1)cccc2,4.033935467863193,-0.7832613128397496,0.0,H9C9N
Sc1ccc(cc1)S,4.243449629464157,0.2081083573626529,0.0,H3C3S
[Mg](Cl)Cl,6.427795688350306,0.5724125957436628,0.0,MgCl2
c1cc(ccn1)c1cc(ncc1O)C,4.940580434516596,0.9404313077480766,0.0,H10C11N2O
C1C[C@H]([C]SC1)OC.OC,4.303599076448881,1.3374684626338422,0.0,H14C7SO2
c1c2c(ccn1)c1ccncc1c1C=Cc21,3.324720013760816,1.9917193649213003,0.0,H4C7N
Nc1cc(ccc1)c1ccsc1,4.015909882554842,0.1310694465988491,0.0,H9C10SN
c1cc(ccn1)c1cc(ncc1C)OC,4.861296083892375,0.8469978783519765,0.0,H12C12N2O
C(=O)(OCC(Cl)(Cl)Cl)N=C=O,6.82855074005929,2.3920970137784026,0.0,H2C4N(ClO)3
O=C1c2c(C(=O)C=C1Nc1ccccc1)cccc2,4.483213881035772,2.2679442313652545,0.0,H11C16NO2
C1CO1,6.457264275549823,-0.9923525795979002,0.0,H4C2O
c12c(scc1)cccc2,4.603609478833823,0.0334341359899554,0.0,H6C8S
P(=O)(O)(O)O,6.848762555969733,0.1437862569087884,0.0,PH3O4
c1cc(ccn1)c1cc(ncc1C#N)C#N,5.842988273050287,1.981721812689648,0.0,H3(C3N)2
c1cc(ccn1)c1c(cncc1O)O,4.951522072105581,0.8467233753486654,0.0,H4C5NO
O=C1C=CC(=O)N=N1,5.278104154085304,3.6671281631275634,0.0,HC2NO
[C@H](C(=O)O)(F)c1ccccc1,5.62441772752536,1.520364124720436,0.0,H7C8O2F
c1cc2c(cc1)C(=O)c1c(C2=O)c(ccc1C)C=C,4.974552587374637,2.0688091691386945,0.0,H12C17O2
c1(c(c2c(cc1)nccn2)N(C)C)N(C)C,3.34445571209435,1.085728804836981,0.0,H4C3N
O=C1c2c(C(=O)C(=C1CC=C(C)C)O)cccc2,5.164365905705926,2.303114670166542,0.0,H14(C5O)3
C(N(=O)=O)c1c2c(ccc1)cccc2,4.783270025758247,1.569159828604461,0.0,H9C11NO2
C=Cc1cscc1C=C,4.652885569766658,0.3836260881049385,0.0,H8C8S
c1cc(cc(n1)NC(=O)C)c1ccnc(c1)C,5.043403962814045,1.074768181866239,0.0,H13C13N3O
C1C[C@](CSC1)(C#N)C,4.968977388436178,-0.7399354535795282,0.0,H11C7SN
CCc1cc(CC)sc1,4.532086160471954,-0.4573858234165526,0.0,H12C8S
c1(cc2c(cc1)ncc(n2)N(=O)=O)C,5.572760145254142,2.4794581439578907,0.0,H7C9N3O2
c1c(c2c(c(c1)N)nccn2)C,3.9015338918539775,1.1046271435785455,0.0,H3C3N
c1(c(c2c(cc1)nccn2)C)C(=O)O,5.3626500216974815,1.5491984200067237,0.0,H4C5NO
c1cc2c(cc1)C(=O)c1c(C2=O)c(c(cc1)C=C)C=C,4.916551081854413,2.1768679744905968,0.0,H6C9O
C(CCl)(Cl)Cl,6.982844851264963,2.094758967935922,0.0,H3C2Cl3
c1cc(ccn1)c1c(cncc1c1ccccc1)C,4.986984524429863,0.8077217777841725,0.0,H14C17N2
c1(cc(ccn1)c1ccnc(c1)N(C)C)N(C)C,4.05870990086405,0.7507325439088164,0.0,H9C7N2
c1cc(ccn1)c1cc(ncc1N)C,4.225456719581052,0.8319325514636149,0.0,H11C11N3
C(F)(F)(F)[C@@H]1OC(=O)OC1,7.414025337673229,-0.5007922338139905,0.0,H3C4(OF)3
C(=O)(OC)c1c(C(=O)OC)cc(c(c1)C(=O)OC)C(=O)OC,5.971475875173928,1.7441859557635326,0.0,H7C7O4
c1(cc2c(c(c1)NC(=O)C)nccn2)C,4.726125017588492,1.357341309064941,0.0,H11C11N3O
Cc1cc2c(cc1)cccc2,4.466649813713593,0.2727616176431184,0.0,H10C11
CCc1ccc(C)s1,4.416804452468204,-0.3569603636300598,0.0,H10C7S
c1cc(ccn1)c1ccnc(c1C#N)C,5.85986931762236,1.39953634211779,0.0,H3C4N
Cc1ccsc1NC,3.386483212828898,-0.6828103614301653,0.0,H9C6SN
C1[C@H](C[C@H](SC1)N(C)C)C,3.9749337698318414,-0.8815619118562608,0.0,H17C8SN
c1c(c2c(cc1)ncc(n2)C)OC,4.533841645757638,1.205919985278888,0.0,H10C10N2O
c1cc2c(cc1NC(=O)C)C(=O)c1c(C2=O)cc(cc1)NC(=O)C,6.45729217693588,3.607383536011184,0.0,H7C9NO2
C1[C@H]([C@H](CSC1)N(=O)=O)C,4.81069766664732,1.582822087560635,0.0,H11C6SNO2
O=C1c2c(C(=O)O1)cccc2,6.438131380118284,1.8929545206498009,0.0,H4C8O3
c12c(nc3c(c1)cccc3)cccc2,4.4670694867250855,1.296635378386418,0.0,H9C13N
c1(cc2c(cc1)ncc(n2)NC(=O)C)C,4.962779097788006,1.197609555174131,0.0,H11C11N3O
c1cc(ccn1)c1c(cncc1N)N,4.002703604755515,0.5912136537932384,0.0,H5C5N2
c1(cc(ccn1)c1ccnc(c1)C(=O)O)C,7.108189602698985,2.740620259264688,0.0,H5C6NO
C(=O)(O)[C@@H]1[C@@H](C(=O)O)C=CC=C1,4.922302286749618,0.7465733954537428,0.0,H2C2O
Cc1cscc1OC,4.41885699898703,-0.8004760370007715,0.0,H8C6SO
c1(cc2c(cc1)nc(cn2)OC)C,4.864495372552119,1.0203252369097755,0.0,H10C10N2O
Cc1c(C)c(O)c(c(c1O)C)C,3.8681992608941074,-0.7827243043397174,0.0,H7C5O
[C@@H]1(CC[C@H](SC1)NC(=O)C)NC(=O)C,4.947290636600519,-0.564320779567788,0.0,H16C9S(NO)2
c1cc(c(cn1)C#N)c1ccncc1C#N,6.372735012324119,1.7713188184512547,0.0,H3(C3N)2
c1c(c2c(cc1)ncc(n2)C)C(=O)O,5.214050096646679,1.559335501327587,0.0,H4C5NO
c1cc2c(cc1C=C)C(=O)c1c(C2=O)c(ccc1)C=C,5.1658341857160845,2.1945102520781803,0.0,H6C9O
C=Cc1ccc(C)s1,4.23670664037636,0.4341777208152053,0.0,H8C7S
N(Cl)(Cl)Cl,5.8738913872672125,3.850243995244091,0.0,NCl3
c1(cc2c(cc1)C(=O)c1c(C2=O)c(ccc1)C=C)C,5.110508925239264,2.126986052027496,0.0,H12C17O2
C(=O)c1ccccc1,5.8475006198292245,1.1367677879912663,0.0,H6C7O
[C@](C#C)(C)(O)c1ccccc1,5.352890027573812,0.2354405951442459,0.0,H10C10O
C1C[C@](CSC1)(C)N,4.449028929711494,-0.799952454608865,0.0,H13C6SN
c1(cc(ccn1)c1ccncc1N)N,4.388931655104534,0.6721090217411985,0.0,H5C5N2
c1cc(c(cn1)[NH]=C)[C]1CC=NC(=C1)NC,2.1956636093069397,1.4853125397981786,0.0,H7(C3N)2
c1cc(ccn1)c1c(cncc1C)NC,4.140370850219915,0.6392444674398576,0.0,H13(C4N)3
C1CCC2(SC1)C(Cl)(Cl)C2(Cl)Cl.ClCl,4.786621845103218,4.147827797985519,0.0,H8C7SCl6
c1(cc2c(cc1)nc(cn2)NC(=O)C)C,4.839460774228064,1.201769849232369,0.0,H11C11N3O
c1cc(cc(n1)C)c1ccnc(c1)C=C,5.209326717421936,1.0383471486762574,0.0,H12C13N2
c1(cc2c(c(c1)OC)nccn2)OC,4.544800216988369,1.1964820161134413,0.0,H5C5NO
C(=O)(OCc1ccccc1)C1=C[S]=C(S1)C1=[S]C=CS1,3.348588443748304,1.016317587827507,0.0,H5C7S2O
c1(cc2c(cc1)nc(cn2)c1ccccc1)C,4.830644375660631,1.2716018576335046,0.0,H12C15N2
Cc1cc(c2ccccc2)sc1,4.277789827172091,0.4419915839804162,0.0,H10C11S
S=C1OCCO1,5.213482559696422,0.7897784987486376,0.0,H4C3SO2
c1c(c(ccn1)c1ccncc1F)C,5.659764757323137,0.9167314686179452,0.0,H9C11N2F
c1c(c2c(cc1NC)nccn2)NC,3.682516807517095,0.8959152307266778,0.0,H6C5N2
C(CCC)N1C=C[CH]C=C1.[Cl],5.230186055430385,1.4928408657520778,0.0,H14C9NCl
c1cc(ccn1)c1cc(nc(c1)C(=O)O)C,5.912843519976013,1.3305169091778226,0.0,H5C6NO
c1cc(c(cn1)C)c1ccncc1N,4.426461573953565,0.5865713753752062,0.0,H11C11N3
O=c1c2c(oc3c1cccc3)cccc2,5.036550253329187,1.2149584423474151,0.0,H8C13O2
C(C)(C)N,4.775240354549714,-0.8562895812741771,0.0,H9C3N
Cc1ccc(OC)s1,3.962969678102672,-0.1741961107531096,0.0,H8C6SO
C(#CC)C,5.624366880332309,-1.087150853096682,0.0,H3C2
c1cc(ccn1)c1c(cncc1c1ccccc1)c1ccccc1,6.45195744499506,2.339574932844698,0.0,H8C11N
c1c(c2c(cc1)nc(cn2)N(=O)=O)N(=O)=O,6.180067804872669,2.7103771964335466,0.0,HC2NO
c1(cc2c(cc1)C(=O)c1c(C2=O)cc(cc1)N(C)C)N(C)C,5.40318577142898,3.181360493941611,0.0,H9C9NO
c1cc(c(cn1)c1ccccc1)c1ccnc(c1)c1ccccc1,6.341383698239952,2.402123871499498,0.0,H8C11N
CCc1ccsc1C,4.502936569607845,-0.4117007154076417,0.0,H10C7S
CNc1ccsc1NC,2.9708666719867325,-0.3384801604501262,0.0,H10C6SN2
N(CC(F)F)(c1ccccc1)c1ccccc1,3.991018693662773,-0.3443677732888317,0.0,H13C14NF2
c1(cc(ccn1)c1ccnc(c1)c1ccccc1)c1ccccc1,5.018185489008465,1.102342094830965,0.0,H8C11N
c1(cc(ccn1)c1ccncc1C(=O)O)C(=O)O,5.878636549199291,1.5196186470908288,0.0,H4C6NO2
c1(cc2c(cc1OC)nccn2)OC,4.715314024580584,1.138650040231005,0.0,H5C5NO
O=C1OCCS1,5.883327742796245,0.7861226520486526,0.0,H4C3SO2
S(=O)(=O)(Nc1cc(C)ccn1)c1ccc(cc1)C,4.950413820466201,1.625067815422517,0.0,H14C13S(NO)2
c1cc(c(cn1)[C](O)O)c1[c]cncc1C(=O)O,2.8735052466741764,2.2788146349899763,0.0,H4C6NO2
c1cc(cc(n1)C)c1ccnc(c1)C(Cl)(Cl)Cl,5.688248768624908,2.723851111799013,0.0,H9C12N2Cl3
C1CC(CSC1)(O)O,4.77992830455114,-0.573311167727661,0.0,H10C5SO2
c1cc(ccn1)c1cc(nc(c1)NC(=O)C)C,4.965762434183125,1.1242680047958855,0.0,H13C13N3O
c1cc(ccn1)c1c(cnc(c1)CC)CC,5.282362292114703,0.8212956922594459,0.0,H8C7N
c1cc(ccn1)c1c(cnc(c1)C(=O)O)C(=O)O,5.732620372249221,1.8950446624163304,0.0,H4C6NO2
c1ccc(cc1)c1ccc(c2ccccc2)s1,4.05097787049599,0.8493973237578758,0.0,H12C16S
c1cc(ccn1)c1c(cnc(c1)OC)OC,4.517980576374248,0.969051229026809,0.0,H6C6NO
c1cc(ccn1)c1c(cnc(c1)C)C(=O)O,5.877319602573698,1.3021110598543602,0.0,H5C6NO
CN(C)c1ccc(N(C)C)s1,2.7217671905469616,-0.8690692335534549,0.0,H14C8SN2
[C@@H]1(C[C@H](CSC1)C)O,4.784007797121012,-0.4949666139495092,0.0,H12C6SO
c1(c(ccs1)C#C)C#C,4.799087684821279,0.9420961110969076,0.0,H4C8S
[C@@H]1(C[C@H](CSC1)C#N)C#N,5.2513283945496365,-0.4402226430560403,0.0,H8C7SN2
C1CC(CSC1)(NC(=O)C)NC(=O)C,5.009882343392382,-0.6598594884257181,0.0,H16C9S(NO)2
C1C(CCSC1)(C)N(=O)=O,4.851545300823636,1.6745671812037473,0.0,H11C6SNO2
C1C[C@](CSC1)(C)C=C,4.712001220910315,-0.8824913819793436,0.0,H14C8S
[C@@H]1(C[C@H](CSC1)c1ccccc1)c1ccccc1,4.720910260637174,-0.5291297526331618,0.0,H18C17S
C1[C@H](C[C@H](SC1)C)OC,4.788165321058477,-0.8598077247683249,0.0,H14C7SO
C1C[C@H]([C@H](SC1)c1ccccc1)C,4.702696380716224,1.2042197173337628,0.0,H16C12S
c1cc2c(cc1)C(=O)c1c(C2=O)cc(cc1C)C(Cl)(Cl)Cl,5.826706379617098,2.2971098442954827,0.0,H9C16Cl3O2
C(=N\CC)\[C@H]1C(=C1)c1c(cnc(c1)C)N=C=O,4.760030706647376,1.2333959426992809,0.0,H13C13N3O
[C@@H]1(CC[C@H](SC1)C(=O)O)C,4.925556098861852,1.008904624542629,0.0,H12C7SO2
c1(cc2c(cc1)C(=O)c1c(C2=O)cc(cc1)C)C(Cl)(Cl)Cl,5.737544400058686,2.3358772307561595,0.0,H9C16Cl3O2
C1CC[C@@](SC1)(O)C,4.743460875951859,-0.7314795051628606,0.0,H12C6SO
c1cc(ccn1)c1cc(nc(c1)C)N,4.394143418799649,0.9360601118620252,0.0,H11C11N3
c1cc(cc(n1)C#C)c1ccnc(c1)C#C,5.5853656827726805,1.3361823710016325,0.0,H4C7N
Cc1cc(N(C)C)sc1,3.4112437761847105,-0.8016325697957654,0.0,H11C7SN
C1[C@H]([C@H](CSC1)C)C#C,4.485432944898639,-0.6266750207745644,0.0,H12C8S
C1[C@H]([C@H](CSC1)N(C)C)C,3.769471277167759,-0.7702519475009466,0.0,H17C8SN
C1C(CCSC1)(NC)NC,3.864817917191977,-0.7817661534158105,0.0,H16C7SN2
C1C[C@](CSC1)(C(=O)O)C,4.811812323843332,-0.0041603718003897,0.0,H12C7SO2
C1[C@H]([C@H](CSC1)c1ccccc1)C,4.635544984784792,-0.6193914258459698,0.0,H16C12S
C1C[C@](CSC1)(c1ccccc1)C,4.598014973418321,-0.874610007371666,0.0,H16C12S
C1CC[C@H](S[C@H]1C#N)C#N,5.657194353677914,1.4443042196850002,0.0,H8C7SN2
c1(cc2c(cc1)nc(cn2)C)NC(=O)C,4.774661508550343,1.2692823021294315,0.0,H11C11N3O
C1[C@H](C[C@H](SC1)C=C)C=C,4.40000779583861,1.118196004901256,0.0,H14C9S
c1(c(ccs1)c1ccccc1)C,4.443949228303245,0.0195486919852556,0.0,H10C11S
Cc1ccc(C#N)s1,5.178805631987052,0.7651944937329973,0.0,H5C6SN
C1[C@H]([C@H](CSC1)C=C)C,4.653203681727609,-0.7374758492500404,0.0,H14C8S
c1cc2c(cc1)C(=O)c1c(C2=O)c(cc(c1)C)C(Cl)(Cl)Cl,5.819074027270835,2.2340640393682407,0.0,H9C16Cl3O2
c1cc(cc(n1)C)c1ccnc(c1)NC,4.258102195029641,0.8686003293165414,0.0,H13(C4N)3
c1cc(cc(n1)CC)c1ccnc(c1)CC,5.61527286577766,0.981151459314424,0.0,H8C7N
C1C[C@](CSC1)(N)C,4.499953524374723,-0.8424198736160178,0.0,H13C6SN
Cc1ccsc1N(C)C,3.472379943331908,-0.2947641117192687,0.0,H11C7SN
c1(c(ccs1)C(Cl)(Cl)Cl)C(Cl)(Cl)Cl,5.624174811493139,2.95694960836554,0.0,H2C6SCl6
[C@@H]1(CC[C@H](SC1)NC)C,4.323936391266761,-0.8798686644426197,0.0,H15C7SN
C1[C@H](C[C@H](SC1)C=C)C,4.616315176013449,1.0189576879944071,0.0,H14C8S
c1(cc2c(cc1)nc(cn2)C)OC,4.6837141519969006,1.156525399655584,0.0,H10C10N2O
c1(cc(cs1)C)O,4.228169275492837,-0.400678521239024,0.0,H6C5SO
c1cc(ccn1)c1c(cncc1C)CC,5.434755070467508,0.650753410680045,0.0,H14C13N2
C1C[C@](CSC1)(NC)C,4.026896639335609,-0.8680755772169504,0.0,H15C7SN
c1cc(cc(n1)NC)c1ccncc1C,4.298273988225992,0.7597283906739905,0.0,H13(C4N)3
C=Cc1ccsc1C=C,4.297663571580051,0.7513043802515313,0.0,H8C8S
[C@@H]1(C[C@H](CSC1)N)N,4.524627882068307,-0.7527063465153332,0.0,H12C5SN2
C1C(CCSC1)(C)NC(=O)C,4.466666243942745,-0.7909546268478151,0.0,H15C8SNO
C1CC(CSC1)(c1ccccc1)c1ccccc1,4.751382692118204,-0.2537893187458393,0.0,H18C17S
c1cc(ccn1)c1cc(ncc1F)F,5.866291005569655,1.3216896450991045,0.0,H3C5NF
C1C(CCSC1)(c1ccccc1)C,4.7621485686519005,-0.705562602210557,0.0,H16C12S
c1cc(c(cn1)C)c1ccnc(c1)C(=O)O,5.736290371592622,1.2690926061310166,0.0,H5C6NO
[C@@H]1(CC[C@H](SC1)C)C#C,4.795546267430472,-0.8695964269012619,0.0,H12C8S
C1=N[CH][CH][C]([C]2[C]N12)c1ccncc1C,4.33381993051953,2.5578931429314253,0.0,H3C4N
c1c(c(cs1)N)N,3.8159013947675695,-0.6645216175442328,0.0,H6C4SN2
[C@@H]1(CC[C@H](SC1)C)OC,4.628193222624395,-0.8417198172268399,0.0,H14C7SO
c1(cc(ccn1)c1ccncc1C(=O)O)C,5.450337767398741,1.3488558553413896,0.0,H5C6NO
c1c(c2c(cc1C)nccn2)N,4.030085933250666,1.089796471341833,0.0,H3C3N
C1C[C@](CSC1)(C)N(=O)=O,5.012125693419511,1.613937322673883,0.0,H11C6SNO2
c1cc(cc(n1)O)c1ccnc(c1)O,5.298854151309206,1.0791054778106628,0.0,H4C5NO
C1C[C@](CSC1)(C)C#C,4.827844658958929,-0.9056240379053632,0.0,H12C8S
[C@@H]1(C[C@H](CSC1)C)C(=O)O,4.827399946033983,0.0141573086635617,0.0,H12C7SO2
[C@@H]1(C[C@H](CSC1)C)NC(=O)C,4.842113753542071,-0.5955537147987342,0.0,H15C8SNO
c1(cc(cs1)C#C)C#C,4.815018570455868,0.7459870255021088,0.0,H4C8S
C1[C@H]([C@H](CSC1)C#C)C#C,4.6683756200924105,-0.6027478305280964,0.0,H10C9S
c1(cc(ccn1)c1ccnc(c1)OC)OC,5.187001096715539,1.0438347949944728,0.0,H6C6NO
C1C(CCSC1)(C)C#N,4.818670993963314,-0.7586013526837632,0.0,H11C7SN
C1[C@H](C[C@H](SC1)C)C#C,4.805621151693776,-0.702432294407481,0.0,H12C8S
c1cc(ccn1)c1c(cncc1N(=O)=O)C,5.800339136419643,2.1374647287317203,0.0,H9C11N3O2
[C@H](C(=O)N)(C(=O)c1c(C2=C[C]2)ccnc1)O.O=[C],4.2450884785881495,2.030227051383554,0.0,H4C6NO2
C1C[C@H]([C@H](SC1)CC)CC,4.610602135087538,-0.8938579797417332,0.0,H18C9S
C1CC[C@@](SC1)(C)CC,4.603062032054003,-0.945791463671776,0.0,H16C8S
[C@@H]1(C[C@H](CSC1)C)NC,4.197061515349196,-0.8063928884752385,0.0,H15C7SN
C1[C@H]([C@H](CSC1)C)O,4.403524921626376,-0.5104846784000983,0.0,H12C6SO
C=Cc1ccsc1C,4.388290290951408,0.0597468938263774,0.0,H8C7S
C1[C@H]([C@H](CSC1)NC)C,4.028051808838063,-0.7361024743790039,0.0,H15C7SN
c1c(csc1C(Cl)(Cl)Cl)C(Cl)(Cl)Cl,5.6093882434739495,2.79044270698214,0.0,H2C6SCl6
c1(ccc(s1)C(=O)O)C(=O)O,5.826413176955247,1.7665267576972838,0.0,H4C6SO4
CCc1ccsc1CC,4.539169046952884,-0.4337094813148723,0.0,H12C8S
C1=C([C@@H](C=[CH])N1c1ccncc1C)[CH2],2.4133928876886785,2.455353413044213,0.0,H6C6N
C=Cc1c(C)ccs1,4.285192578024725,0.4834699998005818,0.0,H8C7S
C1C(CCSC1)(NC)C,4.34159549093747,-0.8957013278653903,0.0,H15C7SN
c1c(c(cs1)C(=O)O)C(=O)O,5.646119282349536,0.8280623470869615,0.0,H4C6SO4
c1c(c2c(cc1C#C)nccn2)C,5.1098609949764064,1.4003228109810153,0.0,H8C11N2
C=Cc1ccc(C=C)s1,4.153686784449382,0.94100392505934,0.0,H8C8S
c1csc(c1N)N,3.242353301798721,-0.4775860200737951,0.0,H6C4SN2
c1cc(ccn1)c1ccnc(c1N(=O)=O)N(=O)=O,5.9040135864648615,2.629252950807859,0.0,H3C5(NO)2
c1cc2c(cc1)nc(c(n2)C)N,4.513221370643441,0.8879255221560016,0.0,H3C3N
C1[C@H]([C@H](CSC1)C=C)C=C,4.53754574912964,-0.5079756309809453,0.0,H14C9S
C1C[C@H]([C@H](SC1)NC(=O)C)NC(=O)C,5.007810642780532,-0.7044371747455442,0.0,H16C9S(NO)2
c1(cc2c(cc1)ncc(n2)N)C,4.522664164389061,0.954955364835405,0.0,H3C3N
CNc1cscc1NC,3.5769591773292637,-0.7432321535547088,0.0,H10C6SN2
C1CC(CSC1)(C(=O)O)C(=O)O,4.947320258912077,0.506306008109823,0.0,H10C7SO4
COc1ccsc1OC,3.832878601651464,-0.0741727372573222,0.0,H8C6SO2
C1[C@H]([C@H](CSC1)C)N(C)C,3.856366785190039,-0.8349270313105079,0.0,H17C8SN
C1=C[C@]2(C=C(N12)c1ccncc1C(Cl)(Cl)Cl)C(Cl)(Cl)Cl,5.364252791253966,2.74463636680739,0.0,H3C6NCl3
[C@@H]1(C[C@H](CSC1)C#N)C,4.9662424185095,-0.5877004250636673,0.0,H11C7SN
C1[C@H](C[C@H](SC1)C)N(C)C,3.886708765292133,-0.8572759259099256,0.0,H17C8SN
C1[C@H](C[C@H](SC1)NC)NC,3.677207621623529,-0.6655716585904883,0.0,H16C7SN2
c1cc(ccn1)c1cc(nc(c1)C(=O)O)C(=O)O,5.884573256816656,1.5724877046610346,0.0,H4C6NO2
c1cc(ccn1)c1cc(nc(c1)C)NC,4.20768543553786,0.915364327878342,0.0,H13(C4N)3
C1C[C@](CSC1)(C=C)C,4.702637688487448,-0.900716388633009,0.0,H14C8S
c1cc(c(cn1)C(Cl)(Cl)Cl)c1ccnc(c1)C,0.9547866025546684,2.588220004393952,0.0,H9C12N2Cl3
c1cc(c(cn1)C=C)c1ccncc1C,5.139591638687852,0.807585225620278,0.0,H12C13N2
c1cc(ccn1)c1c(cnc(c1)C)OC,4.822231916472083,0.9248806495030296,0.0,H12C12N2O
c1(c(=C=C[CH][CH][CH])ccs1)[C@H]1C=CC=C1.C#C,3.68667961590254,2.6182458344716,0.0,H12C16S
c1cc(ccn1)c1cc(nc(c1)C(Cl)(Cl)Cl)C,5.840734677950968,2.6817778741620715,0.0,H9C12N2Cl3
c1cc(ccn1)c1c(cnc(c1)N(=O)=O)C,5.850938054352445,2.156699152559304,0.0,H9C11N3O2
c1ccsc1,5.013893393892067,-0.2491896424784498,0.0,H4C4S
c1cc(ccn1)c1cc(nc(c1)c1ccccc1)C,4.887884435907472,1.0506099506506872,0.0,H14C17N2
c1cc(ccn1)c1cc(ncc1c1ccccc1)c1ccccc1,4.691852227917115,1.0090298377232103,0.0,H8C11N
C1CC(CSC1)(C=C)C=C,4.599361531467002,-0.3955311478443035,0.0,H14C9S
c1(cc2c(cc1)ncc(n2)c1ccccc1)C,4.92320998776413,1.2767416118455004,0.0,H12C15N2
[C@@H]1(C[C@H](CSC1)C(=O)O)C(=O)O,6.169374176119163,1.142823813639552,0.0,H10C7SO4
c1(cc(ccn1)c1ccnc(c1)C#N)C#N,6.404858733976289,1.7028617659030716,0.0,H3(C3N)2
C1C[C@](CSC1)(C#C)C,4.806688354955986,-0.8088369034070637,0.0,H12C8S
[C@@H]1(C[C@H](CSC1)OC)C,4.744281707347545,-0.8518307837788597,0.0,H14C7SO
c1cc(c(cn1)C)c1ccnc(c1)c1ccccc1,4.962662799056124,0.9230542976125437,0.0,H14C17N2
C1[C@H]([C@H](CSC1)C)CC,4.6792792080028445,-0.8831093606662761,0.0,H16C8S
c1c(c2c(cc1)nc(cn2)C(=O)O)C(=O)O,5.49158764568856,1.9788046924782976,0.0,H3C5NO2
c1(cc(ccn1)c1ccnc(c1)N)N,4.494866786100465,0.8530477962063743,0.0,H5C5N2
c1cc(ccn1)c1c(cnc(c1)O)C,5.045572636635916,0.9155636811970908,0.0,H10C11N2O
C1C(CCSC1)(N(=O)=O)N(=O)=O,5.051215523899009,2.39614497107832,0.0,H8C5S(NO2)2
Cc1cc(cs1)c1ccccc1,4.3594307489453055,0.1866631609860634,0.0,H10C11S
C1[C@H]([C@H](CSC1)C(=O)O)C,4.770247577185364,-0.1856730806161066,0.0,H12C7SO2
Cc1ccsc1C(=O)O,5.2775934589968525,0.8891631149468595,0.0,H6C6SO2
C1CC(CSC1)(OC)OC,4.609657364000304,-0.8707602251364732,0.0,H14C7SO2
c1cc(ccn1)c1cc(nc(c1)C#N)C#N,5.833845435832336,1.787892469628423,0.0,H3(C3N)2
c1cc(cc(n1)C#N)c1ccncc1C,5.651156231955246,1.2979764533425624,0.0,H3C4N
c1cc(cc(n1)C)c1ccnc(c1)c1ccccc1,4.963362071755546,1.0495306628123218,0.0,H14C17N2
[CH]N1[C@H]2[C]3[C@H]([C@@H]23)c2ccncc2[C]1O.O=C,3.3113291720343114,5.307655534642981,0.0,H5C6NO
c1cc(c(cn1)C)c1ccncc1CC,5.646648252606246,0.5740541170322104,0.0,H14C13N2
C(=N\C=C\C(=C=C)c1ccncc1NC=O)\C,4.017726528146886,0.9525445096965997,0.0,H13C13N3O
c1cc(ccn1)c1c(cnc(c1)C(=O)O)C,5.924406766245374,1.2041564780789489,0.0,H5C6NO
c1(cc2c(cc1)C(=O)c1c(C2=O)cc(cc1)C)C,5.553774719200737,2.1148642567219214,0.0,H6C8O
C1C(CCSC1)(C)C=C,4.744793831030256,-0.9240735711304296,0.0,H14C8S
C1C(CCSC1)(C(=O)O)C,4.6290629964147225,-0.5559552763465034,0.0,H12C7SO2
c1cc(ccn1)c1cc(nc(c1)OC)C,4.926021342774765,0.9698751679621638,0.0,H12C12N2O
c1cc(ccn1)c1cc(nc(c1)OC)OC,4.87385297017463,1.0349351159798972,0.0,H6C6NO
c1cc(cc(n1)C)c1ccnc(c1)N,4.512174050738031,0.9318762282560784,0.0,H11C11N3
c1cc2c(cc1)C(=O)c1c(C2=O)cc(cc1NC(=O)C)C,5.013918360336538,2.483928136212489,0.0,H13C17NO3
[C@@H]1(CC[C@H](SC1)C(=O)O)C(=O)O,5.0695094705894,1.12533110186414,0.0,H10C7SO4
c1cc2c(cc1)C(=O)c1c(C2=O)cc(cc1C)NC,4.307328540829621,1.8971486901551544,0.0,H13C16NO2
C1[C@H](C[C@H](SC1)C#N)C,5.114245491787733,1.0494859028091017,0.0,H11C7SN
c1cc(ccn1)c1ccnc(c1CC)CC,5.38683524932785,0.7170739559856885,0.0,H8C7N
c1cc(cc(n1)C)c1ccncc1NC,4.1848690493621685,0.8685207169706701,0.0,H13(C4N)3
c1c(c(cs1)OC)OC,4.2720118408338745,-0.480904108188406,0.0,H8C6SO2
c1cc(ccn1)c1cc(nc(c1)C)C,5.44876976038322,1.0063336902727316,0.0,H6C6N
c1cc2c(cc1)C(=O)c1c(C2=O)cc(c(c1)NC)C,4.219826635280333,2.04267406081417,0.0,H13C16NO2
c1c(c2c(cc1)nc(cn2)C(=O)O)C,5.281535944971983,1.7525668279755338,0.0,H4C5NO
C1CC[C@@](SC1)(C)C(Cl)(Cl)Cl,4.951243705081287,2.6585743189803908,0.0,H11C7SCl3
c1(cc2c(cc1)nc(cn2)C=C)C,4.945973937604867,1.251186462471742,0.0,H10C11N2