smiles,IE,EA,charge,formula_pretty
Cc1cc(cc2c1ONO2)C(C)(C)C,4.226462433279812,-0.2797666989994467,0.0,H15C11NO2
CC(C)(C)c1cc(c2c(c1)ONO2)OC,4.310062931153516,-0.2290128612134139,0.0,H15C11NO3
CCc1cc(c2c(c1)ONO2)F,4.516131200927338,-0.0640257101789756,0.0,H8C8NO2F
c1c(cc2c(c1O)ONO2)C(F)(F)F,4.710941223225381,0.4372278176211694,0.0,H4C7N(OF)3
c1c(cc2c(c1C(=O)O)ONO2)C(F)(F)F,4.899945756632951,1.2715867553139106,0.0,H4C8NO4F3
COCCOCCOc1cc2c(cc1C#N)ONO2,4.6106354962408655,0.7701948657973845,0.0,H14C12N2O5
Cc1cc(c2c(c1)ONO2)C(F)(F)F,4.590837557310442,0.5075513262032474,0.0,H6C8NO2F3
CC(C)(C)c1cc(c2c(c1)ONO2)NC,3.936395810707472,-0.6290513310617825,0.0,H16C11(NO)2
C#Cc1cc2c(cc1C(=O)O)ONO2,4.718666067064623,1.1793749347358244,0.0,H5C9NO4
c1c(c(cc2c1ONO2)O)C(F)(F)F,4.506694461718871,0.4170419395974023,0.0,H4C7N(OF)3
c1c(C#N)c(cc2c1ONO2)C(Cl)(Cl)Cl,4.978714481463248,3.220187754771905,0.0,H3C8N2Cl3O2
c1c(cc2c(c1C(F)(F)F)ONO2)C(Br)(Br)Br,4.869959832075983,2.8694090327131563,0.0,H3C8Br3NO2F3
c1c(C#N)c2c(cc1C(Cl)(Cl)Cl)ONO2,4.993785710497468,2.732612067172886,0.0,H3C8N2Cl3O2
COCCOCCOCCOc1ccc(c2c1ONO2)O,4.368317271249543,-0.1552646285475929,0.0,H19C13NO7
CC(C)(C)c1cc2c(cc1N)ONO2,3.6872911699880206,-0.3410777482698903,0.0,H7C5NO
C=Cc1c(ccc2c1ONO2)C(C)(C)C,4.332741984200402,0.4499214519943053,0.0,H15C12NO2
C#Cc1cc(cc2c1ONO2)C(C)(C)C,4.423900675244658,0.5479526610302856,0.0,H13C12NO2
C=Cc1cc2c(cc1C(=O)O)ONO2,4.568584950194781,1.0922665683807282,0.0,H7C9NO4
CCc1cc2c(cc1C(=O)O)ONO2,4.591346611554036,0.8245578473812203,0.0,H9C9NO4
c1c(c(cc2c1ONO2)C(F)(F)F)C(=O)O,4.924013006586028,1.2780932257752284,0.0,H4C8NO4F3
COCCOCCOCCOc1ccc(C#N)c2c1ONO2,4.76396521968636,0.7186323791480391,0.0,H9C7NO3
COCCOCCOCCOc1ccc(c2c1ONO2)N,3.906546898162196,-0.2987780058123461,0.0,H20C13(NO3)2
CC(C)(C)c1cc(C#N)c2c(c1)ONO2,4.638594042121985,0.8009093506894716,0.0,H12C11(NO)2
CNc1cc2c(cc1OCCOC)ONO2,3.489311674545752,-0.2639755982512723,0.0,H7C5NO2
C=Cc1cc(c2c(c1)ONO2)C(F)(F)F,4.559743541636271,0.7955996886026697,0.0,H6C9NO2F3
c1c(c(cc2c1ONO2)C(Cl)(Cl)Cl)C(=O)O,4.848967669831472,2.6398515535271145,0.0,H4C8NCl3O4
CNc1cc(c2c(c1)ONO2)OCCOCCOC,3.589764767498855,-0.6551191020902478,0.0,H18C12N2O5
CN(C)c1ccc(c2c1ONO2)C(=O)O,4.107116800334188,0.7239633205404972,0.0,H10C9(NO2)2
C=Cc1cc(cc2c1ONO2)NC,3.636400880715519,0.4947389549612127,0.0,H10C9(NO)2
CCc1ccc(c2c1ONO2)O,4.379695518216613,-0.4232201785674987,0.0,H9C8NO3
C#Cc1ccc(c2c1ONO2)O,4.571218271997713,0.3942959302254167,0.0,H5C8NO3
COCCOCCOCCOc1ccc(c2c1ONO2)C(=O)O,4.607971490882482,0.8649079105140118,0.0,H19C14NO8
c1cc(c2c(c1Cl)ONO2)N,4.273536238886299,1.1621899199613837,0.0,H5C6N2ClO2
c1c(cc2c(c1N)ONO2)C#N,4.482398649746392,0.6479352228885547,0.0,H5C7N3O2
CCc1cc(C#C)c2c(c1)ONO2,4.443849806067737,0.5837354757037247,0.0,H9C10NO2
C=Cc1ccc(c2c1ONO2)O,4.464536841594599,0.3411311583819043,0.0,H7C8NO3
Cc1cc(c2c(c1)ONO2)C(Br)(Br)Br,4.5207140605722085,3.231800147530157,0.0,H6C8Br3NO2
C=Cc1cc(cc2c1ONO2)O,4.183632275640411,0.5913821466761875,0.0,H7C8NO3
CCc1ccc(C#N)c2c1ONO2,4.710156797938543,0.7702877600146167,0.0,H8C9(NO)2
COCCOc1ccc(c2c1ONO2)C(=O)O,4.6207527676757305,0.8574638881560532,0.0,H11C10NO6
CC(=O)c1ccc(c2c1ONO2)C(=O)O,4.736926856692298,1.7126743922868628,0.0,H7C9NO5
COCCOc1cc(cc2c1ONO2)C(=O)O,4.69178768523634,0.9080516847985564,0.0,H11C10NO6
CN(C)c1ccc(c2c1ONO2)O,3.6700208475209366,-0.2710939057855284,0.0,H10C8N2O3
C#Cc1cc(cc2c1ONO2)O,4.305583640770783,0.6306321297575779,0.0,H5C8NO3
c1cc(c2c(c1Cl)ONO2)O,4.616483668903674,0.0990200582833495,0.0,H4C6NClO3
CNc1cc2c(cc1C#N)ONO2,4.067692321533832,0.609569457404723,0.0,H7C8N3O2
COCCOCCOc1cc(cc2c1ONO2)O,4.113560956722358,-0.1599437430071701,0.0,H15C11NO6
c1c(cc2c(c1Cl)ONO2)C#N,4.942289502623316,0.9491232142405353,0.0,H3C7N2ClO2
CN(C)c1ccc(c2c1ONO2)Cl,3.953269306840957,1.1596073256128876,0.0,H9C8N2ClO2
CN(C)c1cc(c2c(c1)ONO2)O,3.6124342938361225,-0.407982554641785,0.0,H10C8N2O3
C#Cc1ccc(c2c1ONO2)C(=O)O,4.727932403149316,1.3606850221418427,0.0,H5C9NO4
CCc1ccc(c2c1ONO2)C(=O)O,4.557184727318235,0.9166714675171534,0.0,H9C9NO4
C#Cc1ccc(c2c1ONO2)NC,4.047247129908646,0.2675617344335479,0.0,H8C9(NO)2
COCCOc1ccc(c2c1ONO2)O,4.368225130788778,-0.097427150520525,0.0,H11C9NO5
CNc1cc(c2c(c1)ONO2)OCCOC,3.6811774958565366,-0.3283037341920134,0.0,H7C5NO2
CNc1ccc(c2c1ONO2)F,4.083988824766129,0.0039678780827672,0.0,H7C7N2O2F
COCCOc1cc(cc2c1ONO2)O,4.208457142221596,-0.1425222912388561,0.0,H11C9NO5
c1c(cc2c(c1N)ONO2)O,3.975245966037255,-0.513566626130705,0.0,H6C6N2O3
c1cc(c2c(c1C(=O)O)ONO2)N,4.359165010731521,0.6180375312193065,0.0,H6C7(NO2)2
CN(C)c1ccc(C#N)c2c1ONO2,4.197574332929071,0.5518388956312266,0.0,H9C9N3O2
C=Cc1ccc(C#N)c2c1ONO2,4.750679696900624,1.2542772647844689,0.0,H6C9(NO)2
COCCOCCOCCOc1cc(cc2c1ONO2)C#N,4.773670483556634,0.7568206583870052,0.0,H9C7NO3
CN(C)c1cc(c2c(c1)ONO2)OCCOCCOC,3.552676919343503,-0.6215553485584677,0.0,H20C13N2O5
CN(C)c1cc(c2c(c1)ONO2)OCCOCCOCCOC,3.705947819938592,-0.6282438250804261,0.0,H24C15(NO3)2
COCCOc1cc(C#N)c2c(c1)ONO2,4.412958588670881,0.915393425007642,0.0,H5C5NO2
COCCOc1cc(cc2c1ONO2)N,3.811510274704778,-0.2219387286408163,0.0,H12C9(NO2)2
CC(=O)c1ccc(C#N)c2c1ONO2,4.891408672030229,1.72249639026777,0.0,H6C9N2O3
CC(=O)c1cc(cc2c1ONO2)C(=O)O,4.795948729240626,1.30743920392124,0.0,H7C9NO5
c1c(cc2c(c1Cl)ONO2)C(=O)O,4.847737002344365,1.05704155443309,0.0,H4C7NClO4
c1c(cc2c(c1Cl)ONO2)N,3.943677677708911,1.2052773285809963,0.0,H5C6N2ClO2
CN(C)c1cc2c(cc1C#N)ONO2,4.042685198544495,0.6955690904811491,0.0,H9C9N3O2
CCc1cc(c2c(c1)ONO2)OC,4.319438822994561,-0.1750705159196512,0.0,H11C9NO3
CC(=O)c1cc2c(cc1C(=O)O)ONO2,4.816696454313933,1.4211237234245346,0.0,H7C9NO5
C=Cc1ccc(c2c1ONO2)N,3.997697730555592,0.2452698803350359,0.0,H4C4NO
C=Cc1ccc(c2c1ONO2)C(=O)O,4.606615664631681,1.2993057212821442,0.0,H7C9NO4
C=Cc1ccc(c2c1ONO2)NC,3.840537289173517,0.2414307051018114,0.0,H10C9(NO)2
CCc1cc(cc2c1ONO2)N,3.696326837889137,-0.4616680707280465,0.0,H5C4NO
CCc1ccc(c2c1ONO2)N(C)C,3.782997256066301,-0.6914426287279638,0.0,H7C5NO
COCCOc1cc(c2c(c1)ONO2)N,3.9561952326599568,-0.5979374293041473,0.0,H12C9(NO2)2
COCCOCCOc1cc(cc2c1ONO2)N,3.7226541211690343,-0.2324815072010095,0.0,H16C11N2O5
COCCOc1cc(cc2c1ONO2)Cl,4.531269201257237,0.0744957931397949,0.0,H10C9NClO4
C=Cc1cc2c(cc1N(C)C)ONO2,3.701099281961069,0.3815122016800161,0.0,H6C5NO
C#Cc1cc(c2c(c1)ONO2)NC,4.077439654201589,0.3932253092112661,0.0,H8C9(NO)2
C=Cc1cc(cc2c1ONO2)C(=O)O,4.675254268809658,0.8989905116664887,0.0,H7C9NO4
CNc1cc2c(cc1O)ONO2,3.4257648454637093,-0.2404583719930086,0.0,H8C7N2O3
c1c(cc2c(c1Cl)ONO2)O,4.366476848355523,1.2461908306337135,0.0,H4C6NClO3
C=Cc1cc(cc2c1ONO2)C#N,4.7637884246047175,0.863109929215716,0.0,H6C9(NO)2
CCc1cc(cc2c1ONO2)C(=O)O,4.620234189447364,0.8521344978122216,0.0,H9C9NO4
c1c(cc2c(c1C(Cl)(Cl)Cl)ONO2)N(=O)=O,5.10019519849593,2.2154750804562355,0.0,H3C7N2Cl3O4
COCCOc1ccc(c2c1ONO2)N,3.849304826982552,-0.2943550402582331,0.0,H12C9(NO2)2
COCCOCCOc1cc(cc2c1ONO2)C#N,4.7680858694780905,0.7634349621126604,0.0,H14C12N2O5
c1cc(c2c(c1C#N)ONO2)Cl,4.944092528917826,1.0753414332080866,0.0,H3C7N2ClO2
c1cc(c2c(c1C#N)ONO2)C(=O)O,4.946708179651614,1.684334933297214,0.0,H2C4NO2
c1c(cc2c(c1C#N)ONO2)C(=O)O,4.998188049814052,1.2828391904455203,0.0,H2C4NO2
CCc1ccc(c2c1ONO2)N,4.088025562808616,-0.6877659163386851,0.0,H5C4NO
CCc1cc(cc2c1ONO2)C#N,4.715414195122866,0.6893675834486204,0.0,H8C9(NO)2
COCCOCCOc1ccc(C#N)c2c1ONO2,4.762188672791671,0.7019530933808711,0.0,H14C12N2O5
CNc1ccc(c2c1ONO2)OCCOC,3.679441197314736,-0.2134685541081125,0.0,H7C5NO2
COCCOCCOc1ccc(c2c1ONO2)O,4.2851930406191965,-0.1798127907262823,0.0,H15C11NO6
COCCOc1cc(cc2c1ONO2)C#N,4.773460574940691,0.7723727288990632,0.0,H5C5NO2
c1cc(c2c(c1N)ONO2)O,3.909951630046271,-0.3524146067124092,0.0,H6C6N2O3
C#Cc1cc(cc2c1ONO2)N,3.888861558554345,0.5638271565108881,0.0,H3C4NO
COCCOCCOc1ccc(c2c1ONO2)C(=O)O,4.608522668347723,0.8550287305275561,0.0,H15C12NO7
COCCOCCOc1ccc(c2c1ONO2)N,3.761280030206399,-0.299385997920035,0.0,H16C11N2O5
C=Cc1cc(c2ccccc2)c2c(c1)ONO2,4.286489943338529,0.6014495995092148,0.0,H11C14NO2
c1c(cc2c(c1N)ONO2)C(=O)O,4.408068904356332,0.8207497910821986,0.0,H6C7(NO2)2
CN(C)c1cc(cc2c1ONO2)C(=O)O,4.1102613233648295,0.8506674967298751,0.0,H10C9(NO2)2
CC(C)(C)c1ccc2c(c1)ON(C(Br)(Br)Br)O2,4.52058371528401,4.966988010442583,0.0,H12C11Br3NO2
C=Cc1cc(cc2c1ONO2)N,3.779459569360915,0.5247584094100604,0.0,H4C4NO
COCCOc1ccc(C#N)c2c1ONO2,4.765365335182286,0.7148336808473688,0.0,H5C5NO2
C=Cc1cc(c2c(c1)ONO2)NC,3.920503935312445,0.3419226205347514,0.0,H10C9(NO)2
CN(C)c1cc(c2c(c1)ONO2)Cl,3.757297997924616,1.1908201543570611,0.0,H9C8N2ClO2
C#Cc1ccc(c2c1ONO2)N,4.242607273859539,0.2712168192170794,0.0,H3C4NO
COc1ccc(c2c1ONO2)O,4.368638349258253,-0.0923262677701131,0.0,H7C7NO4
CN(C)c1ccc(c2c1ONO2)OC,3.6136264762622887,-0.175558663659467,0.0,H12C9N2O3
c1c(cc2c(c1N(=O)=O)ONO2)C#N,5.171651647605904,2.350470821098133,0.0,H3C7N3O4
CN[N]Oc1ccc(cc1[O])N(C)C,3.1921046542353,2.677090982689697,0.0,H13C9N3O2
CNc1cc(c2c(c1)ONO2)Cl,3.837042348824616,1.1862616570739193,0.0,H7C7N2ClO2
c1ccc(cc1)c1cc(c2c(c1)ONO2)C(F)(F)F,4.556958451053651,0.640863955673558,0.0,H8C13NO2F3
COCCOc1cc(c2c(c1)ONO2)N(=O)=O,4.500045901576959,2.2399585149229098,0.0,H10C9(NO3)2
c1c(cc2c(c1O)ONO2)C#N,4.761058488778508,0.7758663957516547,0.0,H4C7N2O3
COc1cc(cc2c1ONO2)N,3.795890676419367,-0.2227608035958836,0.0,H8C7N2O3
Cc1cc(cc2c1ONO2)N,3.6949976842402976,-0.2972705332380427,0.0,H8C7(NO)2
Cc1cc(cc2c1ONO2)C(=O)O,4.620388807253766,0.8531801387704037,0.0,H7C8NO4
CN(C)c1cc(c2c(c1)ONO2)C(=O)O,3.7585321756829217,0.9290804381613272,0.0,H10C9(NO2)2
c1c(cc2c(c1O)ONO2)C(=O)O,4.675764123070257,0.9283175370852406,0.0,H5C7NO5
CNc1ccc(c2c1ONO2)N,3.356190885336764,-0.6280657265764602,0.0,H9C7N3O2
CN(C)c1cccc2c1ON(N(C)C)O2,3.83339405056322,-0.7297042208723723,0.0,H15C10N3O2
Cc1ccc(C#N)c2c1ONO2,4.709663406567051,0.7528353906705889,0.0,H3C4NO
C#Cc1cc(cc2c1ONO2)N(C)C,3.701210263586836,0.5329564646650398,0.0,H5C5NO
Cc1cc(cc2c1ONO2)C#N,4.71462502145514,0.695106823491733,0.0,H3C4NO
COCCOCCOCCOc1cc2c(cc1N)ONO2,3.6064072226523423,-0.2366690262482733,0.0,H20C13(NO3)2
CC(C)(C)c1cc(cc2c1ONO2)O,4.092126432647637,-0.2332284923417318,0.0,H13C10NO3
C=Cc1cc(c2c(c1)ONO2)N(C)C,3.873380096132314,0.3896143340840354,0.0,H6C5NO
CNc1ccc(c2c1ONO2)C(=O)O,4.219112396321725,0.6059389172929515,0.0,H4C4NO2
c1c(cc2c(c1F)ONO2)O,4.387681498823076,0.2357663072449214,0.0,H4C6NO3F
c1ccc(cc1)c1cc(cc2c1ONO2)N,3.767162535464741,0.4049636661817204,0.0,H5C6NO
CNc1ccc(c2c1ONO2)Cl,4.0960336907606685,1.1474807138962206,0.0,H7C7N2ClO2
COc1cc(c2c(c1)ONO2)C(F)(F)F,4.380209783439204,0.487123242373491,0.0,H6C8N(OF)3
c1c(cc2c(c1N(=O)=O)ONO2)O,4.622805676107964,2.173006055979932,0.0,H4C6N2O5
c1c(cc2c(c1C(F)(F)F)ONO2)C(Cl)(Cl)Cl,4.910883426798682,2.761628967158322,0.0,H3C8NCl3O2F3
CC(C)(C)c1cc2c(cc1C#N)ONO2,4.682625669434492,0.705096791903634,0.0,H12C11(NO)2
CC(C)(C)c1ccc2c(c1)ON(OCCOCCOC)O2,4.087224935866834,-0.4284003199158177,0.0,H23C15NO5
C#Cc1cc(cc2c1ONO2)NC,3.739816604922089,0.5255336726200768,0.0,H8C9(NO)2
CNc1cc(cc2c1ONO2)C#N,4.310164103082206,0.6356575281293773,0.0,H7C8N3O2
CC(C)(C)c1cc(cc2c1ONO2)NC,3.5460075805945963,-0.5402678645717969,0.0,H16C11(NO)2
c1ccc(cc1)c1ccc(c2c1ONO2)O,4.514119525907153,0.2461763786137454,0.0,H9C12NO3
CC(C)(C)c1ccc(c2c1ONO2)O,4.366891634197236,-0.1847517929512832,0.0,H13C10NO3
C#Cc1ccc(C#N)c2c1ONO2,4.87576626244263,1.3098672648135108,0.0,H4C9(NO)2
c1cc(c2c(c1C(=O)O)ONO2)C(F)(F)F,4.890895574173191,1.43436182765945,0.0,H4C8NO4F3
c1c(cc2c(c1F)ONO2)N,3.9574251790469135,0.154258051855868,0.0,H5C6N2O2F
CNc1cc(c2c(c1)ONO2)N(C)C,3.450202412420913,-0.7047376537324452,0.0,H13C9N3O2
CNc1cc(c2c(c1)ONO2)NC,3.412064438872767,-0.6550401455409882,0.0,H11C8N3O2
CNc1cc2c(cc1NC)ONO2,3.240314540560212,-0.7370295498971244,0.0,H11C8N3O2
c1cc(c2c(c1F)ONO2)N,4.274211636320251,-0.1296538699847587,0.0,H5C6N2O2F
C#Cc1cc(c2c(c1)ONO2)OCCOC,4.484660019146395,0.4925806160186767,0.0,H11C11NO4
COCCOCCON1Oc2ccc(cc2O1)OC,3.8694397190425662,-0.2696536262868902,0.0,H17C12NO6
Cc1ccc(c2c1ONO2)C(=O)O,4.558541655629233,0.9061228629994732,0.0,H7C8NO4
c1cc(c2c(c1C(=O)O)ONO2)N(=O)=O,5.022417724519618,2.4340362489434484,0.0,H4C7(NO3)2
c1ccc(cc1)c1cc(cc2c1ONO2)C#N,4.763964806073636,0.8351246862526751,0.0,H8C13(NO)2
c1c(cc2c(c1F)ONO2)C(=O)O,4.869354090312845,1.06003869787819,0.0,H4C7NO4F
c1c(cc2c(c1C(F)(F)F)ONO2)C(=O)O,4.944259127894474,1.168170271915733,0.0,H4C8NO4F3
CNc1ccc(c(c1)[O])O[N]N(C)C,3.1598874261049787,2.236888178290974,0.0,H13C9N3O2
CN(C)c1cccc2c1ON(N)O2,2.7531327486227384,-0.4325083653915498,0.0,H11C8N3O2
CN(C)c1cc2c(cc1N)ONO2,3.4333545847854112,-0.2301780472320387,0.0,H11C8N3O2
CN(C)c1ccc2c(c1)ON(N)O2,3.5702704150877254,-0.3596086380915948,0.0,H11C8N3O2
Cc1ccc(c2c1ONO2)N,4.094089600653751,-0.4053404136215248,0.0,H8C7(NO)2
CC(C)(C)c1cc(c2c(c1)ONO2)C(=O)O,4.480434983766463,0.9460174375031783,0.0,H13C11NO4
CNc1cc(cc2c1ONO2)O,3.831430760100921,-0.5171426019718637,0.0,H8C7N2O3
c1cc(c2c(c1N(=O)=O)ONO2)O,4.832093169597647,2.004063139809296,0.0,H4C6N2O5
CC(C)(C)c1cc(cc2c1ONO2)N,3.685892159269861,-0.4448776128578173,0.0,H7C5NO
c1cc(c2c(c1C(=O)O)ONO2)F,4.822518090435187,1.0061618204541447,0.0,H4C7NO4F
CC(C)(C)c1cc(cc2c1ONO2)C(=O)O,4.604554704348265,0.8458877817807662,0.0,H13C11NO4
c1cc(c2c(c1C#N)ONO2)O,4.7612221979085,0.6016036322704168,0.0,H4C7N2O3
COCCOCCOc1cc(c2c(c1)ONO2)O,4.080533183097577,-0.4197930707581689,0.0,H15C11NO6
c1cc(c2c(c1C#N)ONO2)F,4.974749652222817,0.9273321312335612,0.0,H3C7N2O2F
c1cc(c2c(c1N)ONO2)N(=O)=O,4.557362755074427,1.864722103082022,0.0,H5C6N3O4
c1cc(c2c(c1C#N)ONO2)C(F)(F)F,5.044280261894164,1.3946223879735045,0.0,H3C8N2O2F3
CNN1Oc2ccc(cc2O1)N,2.5860229817459186,-0.3636819591232778,0.0,H9C7N3O2
CN[N]Oc1c(cccc1[O])N,3.1284404161957355,2.881012668840049,0.0,H9C7N3O2
c1c(C#N)c(cc2c1ONO2)C(Br)(Br)Br,4.952340922458097,3.3448311258631294,0.0,H3C8Br3(NO)2
CNc1cccc2c1ON(C)O2,3.8289588045241545,-0.7388372538320254,0.0,H5C4NO
c1cc(c2c(c1C#N)ONO2)N,4.469449263740534,0.4709264035569505,0.0,H5C7N3O2
CNc1cc(c2c(c1)ONO2)F,3.81042479355674,-0.066929366201657,0.0,H7C7N2O2F
CCc1cc(cc2c1ONO2)O,4.107573363813208,-0.1931393428389127,0.0,H9C8NO3
c1c(cc2c(c1C(F)(F)F)ONO2)C#N,5.046114437061624,1.116779573459644,0.0,H3C8N2O2F3
CN(C)c1cc2c(cc1C(=O)O)ONO2,3.915107294754853,0.7551312151277672,0.0,H10C9(NO2)2
CN(C)c1ccc2c(c1N(C)C)ONO2,3.4801312393625268,-0.2599125740074668,0.0,H15C10N3O2
CN(C)c1cc(c2c(c1)ONO2)N(C)C,3.4488450568911504,-0.8891152831623912,0.0,H15C10N3O2
CN(C)c1cc(cc2c1ONO2)N,3.560587657758879,-0.7347972830742946,0.0,H11C8N3O2
Cc1ccc(c2c1ONO2)O,4.3810705529791445,-0.3078137335764039,0.0,H7C7NO3
CNc1ccc(c2c1ONO2)N(C)C,3.235387356240244,-0.6267725735873682,0.0,H13C9N3O2
CNc1cc(cc2c1ONO2)OCCOC,3.786226128942508,-0.4027695419375958,0.0,H7C5NO2
c1c(C#N)c2c(cc1C(Br)(Br)Br)ONO2,4.930719842662802,2.89886271074065,0.0,H3C8Br3(NO)2
c1c(cc2c(c1F)ONO2)C#N,4.966944034107291,0.9529416816127196,0.0,H3C7N2O2F
CN(C)c1ccc(c2c1ONO2)F,3.932175610790728,-0.0181160266169171,0.0,H9C8N2O2F
CN(C)c1cc(c2c(c1)ONO2)F,3.775025558713969,0.112730903166812,0.0,H9C8N2O2F
CCc1ccc(c2c1ONO2)NC,3.9177749464448426,-0.470627144032187,0.0,H12C9(NO)2
CNc1cc(c2c(c1)ONO2)OC,3.6668125274023615,-0.7250753059692214,0.0,H10C8N2O3
COc1ccc(C#N)c2c1ONO2,4.748958805446454,0.7107373906852446,0.0,H6C8N2O3
CC(C)(C)c1cc(c2c(c1)ONO2)C(F)(F)F,4.573616838480666,0.4328551713675552,0.0,H12C11NO2F3
c1cc(c2c(c1C#N)ONO2)N(=O)=O,5.17557839724177,2.499912405137002,0.0,H3C7N3O4
CNc1cc(cc2c1ONO2)OC,3.8268994578771527,-0.6096355488029075,0.0,H10C8N2O3
CN(C)[N]Oc1cc(ccc1[O])N,2.627919587559154,2.2999660110086557,0.0,H11C8N3O2
CN(C)c1ccc(c2c1ONO2)N(C)C,3.2405728446225117,-0.3164531003261799,0.0,H15C10N3O2
c1cc(c2c(c1C(=O)O)ONO2)O,4.616523326772585,0.7792204056182528,0.0,H5C7NO5
c1c(cc2c(c1N(=O)=O)ONO2)N,4.183273093536263,2.1002802230228554,0.0,H5C6N3O4
c1ccc(cc1)c1ccc(C#N)c2c1ONO2,4.745534821505862,1.1336226227736916,0.0,H8C13(NO)2
CC(C)(C)c1ccc(C#N)c2c1ONO2,4.693749397437932,0.7614496113834321,0.0,H12C11(NO)2
c1cc(c2c(c1C(F)(F)F)ONO2)N,4.427530309215944,0.2139006405646797,0.0,H5C7N2O2F3
CNc1c(ccc2c1ONO2)N(C)C,3.6353025938893553,-0.8163738281567929,0.0,H13C9N3O2
CNc1cc(cc2c1ONO2)N(C)C,3.3944278729482904,-0.7046118772726913,0.0,H13C9N3O2
COCCOCCOCCOc1cc(cc2c1ONO2)Cl,4.512220037978841,0.1085506169052679,0.0,H18C13NClO6
CC(=O)c1cc(cc2c1ONO2)C#N,4.89528045738698,1.4087433192922618,0.0,H6C9N2O3
C#Cc1cc(cc2c1ONO2)C#N,4.884231040954182,0.978886707534548,0.0,H4C9(NO)2
C#Cc1cc(cc2c1ONO2)C(=O)O,4.791242041481018,1.048824916526064,0.0,H5C9NO4
CNc1cc2c(cc1N(C)C)ONO2,3.3433589518295777,-0.2578973723888338,0.0,H13C9N3O2
CNc1cc(cc2c1ONO2)OCCOCCOCCOC,3.754318343225896,-0.4165141534271241,0.0,H11C7NO3
c1cc(c2c(c1F)ONO2)O,4.637628867936291,0.070302540659759,0.0,H4C6NO3F
CNc1cc(cc2c1ONO2)C(=O)O,4.228991423920524,0.8025272089631472,0.0,H4C4NO2
c1ccc(cc1)c1cc(c2c(c1)ONO2)C(=O)O,4.47700659157781,1.0362924089218724,0.0,H9C13NO4
c1c(cc2c(c1C(F)(F)F)ONO2)N,4.029230249519605,0.4566375154150592,0.0,H5C7N2O2F3
C=Cc1cc(c2c(c1)ONO2)OCCOC,4.312067939392,0.4503661921276944,0.0,H13C11NO4
CN(C)c1cc(c2c(c1)ONO2)OC,3.631749840236444,-0.662744469277095,0.0,H12C9N2O3
COc1cc(cc2c1ONO2)O,4.1896092479415525,-0.1429118004292831,0.0,H7C7NO4
Cc1cc(cc2c1ONO2)OCCOCCOC,4.00813483643069,-0.1960225195747624,0.0,H17C12NO5
COc1cc(c2c(c1)ONO2)N(=O)=O,4.6247079913024205,2.15170032065871,0.0,H6C7N2O5
C=Cc1cc(cc2c1ONO2)C(C)(C)C,4.302795252171199,0.4919404954249331,0.0,H15C12NO2
c1c(c(cc2c1ONO2)C(F)(F)F)C(Br)(Br)Br,4.940561367513146,3.506951399694662,0.0,H3C8Br3NO2F3
c1cc(c2c(c1C(=O)O)ONO2)Cl,4.795341893617296,1.122874800990394,0.0,H4C7NClO4
COc1cc(cc2c1ONO2)C(=O)O,4.667692497355892,0.9174367822466594,0.0,H7C8NO5
C=Cc1ccc(c2c1ONO2)N(C)C,3.756772045414982,0.3262039836932673,0.0,H6C5NO
c1ccc(cc1)c1cc(cc2c1ONO2)O,4.171761943454476,0.4679833617788973,0.0,H9C12NO3
CNc1cc2c(cc1N)ONO2,3.206149336535964,-0.1736693010829184,0.0,H9C7N3O2
CNc1cc(c2c(c1)ONO2)N,3.525143208478403,-0.7774118149849527,0.0,H9C7N3O2
Cc1cc(cc2c1ONO2)O,4.106196778002049,-0.1889798896158026,0.0,H7C7NO3
COCCOc1c2CCCCc2c(c(c1O)O)C(F)(F)F,4.327323269766202,-0.041495353738719,0.0,H17C14O4F3
COCCOCCOc1c2CCCCc2c(c(c1O)O)OCCOC,4.038815894864092,-0.8781377020553918,0.0,H28C18O7
CC(C)(C)c1ccc2c(c1OCCOC)ONO2,4.354208106136502,-0.1530786618881392,0.0,H19C13NO4
CNc1ccc(c2c1ONO2)O,3.7393198964760814,-0.327615629039792,0.0,H8C7N2O3
CNc1ccc2c(c1N(C)C)ONO2,3.5677175165270456,-0.2082696151359413,0.0,H13C9N3O2
CNc1cc(cc2c1ONO2)c1ccccc1,3.9535765669039393,0.2636839027050883,0.0,H12C13(NO)2
COCCOCCOc1c2CCCCc2cc(c1O)O,4.205688958072278,-0.4842178560924366,0.0,H22(C3O)5
COCCOCCOCCOc1cc(cc2c1ONO2)C(=O)O,4.686363278180215,0.8974658415005252,0.0,H19C14NO8
CC(C)(C)c1ccc(c2c1ONO2)NC,3.92227103169862,-0.5894774318316194,0.0,H16C11(NO)2
CNc1c2CCCCc2c(c(c1O)O)OCCOCCOCCOC,4.128267640285776,-0.6244728225268772,0.0,H29C18NO6
CC(=O)c1c2CCCCc2c(C(=O)C)c(c1O)O,4.426992585065454,1.4401727043892607,0.0,H8C7O2
CC(C)(C)c1cc2c(cc1N(C)C)ONO2,3.77395920988929,-0.1969079916110785,0.0,H9C6NO
COCCOCCOc1cc(c2c(c1)ONO2)C(=O)O,4.269171712506795,1.0480157669786423,0.0,H15C12NO7
COCCOCCOc1cc(cc2c1ONO2)OCCOC,4.1811833463303625,-0.1230931917256383,0.0,H21C14NO7
CN(C)c1ccc(c2c1ONO2)OCCOC,3.614323419665743,-0.1822054196803946,0.0,H16C11(NO2)2
CC(=O)C1(CCCc2cc(c(cc12)O)O)C(=O)C,4.440367992495885,0.6680316053949356,0.0,H8C7O2
CN(C)N1Oc2cccc(c3ccccc3)c2O1,4.370652127717767,0.3770041080439115,0.0,H7C7NO
CNc1ccc2c(c1c1ccccc1)ONO2,3.645455019706424,0.2154115689751052,0.0,H12C13(NO)2
CNc1cc2c(cc1c1ccccc1)ONO2,3.578914867650019,0.1164620083887713,0.0,H12C13(NO)2
c1c(cc2c(c1O)ONO2)C(Br)(Br)Br,4.619218391214963,3.451050414377824,0.0,H4C7Br3NO3
CC(C)(C)c1cc2c(cc1C(=O)O)ONO2,4.520419946323818,0.8307885440677638,0.0,H13C11NO4
CCc1cc(c2c(c1)ONO2)OCCOCCOC,4.244208056986826,-0.5336491580404981,0.0,H19C13NO5
CNc1cc(c2ccccc2)c2c(c1)ONO2,3.664679114089813,0.3833512830584369,0.0,H12C13(NO)2
CC(=O)c1c2CCCCc2c(c2ccccc2)c(c1O)O,4.28735222311443,1.0490968698119103,0.0,H6C6O
c1cc(c2c(c1C(F)(F)F)ONO2)O,4.704523850997793,0.2834065967232164,0.0,H4C7N(OF)3