smiles,IE,EA,charge,formula_pretty
COCCOCCOCCOc1cc(O)sc1,3.980737206971389,-0.3948202858067815,0.0,H18C11SO5
C#Cn1c2cccc(c2[nH]s1)O,3.58778142496667,2.770957015947352,0.0,H6C8SN2O
CN(C)c1cscc1N,3.6427787229600654,-0.70513965294449,0.0,H10C6SN2
c1csc(c1C(F)(F)F)C(=O)O,5.809414173750701,1.4555704428217724,0.0,H3C6SO2F3
CNc1cc(N)sc1,3.2726521409691487,-0.5482514124763838,0.0,H8C5SN2
CNn1c2cccc(C#N)c2[nH]s1,3.690924240757886,0.8036966154628318,0.0,H8C8SN4
COCCOCCOC1=C(C(Cl)(Cl)Cl)S[C](C2=[S]C=CS2)S1,3.3720254208979896,2.6413108673965326,0.0,H13C12S4(ClO)3
CC(=O)C1=C(OCCOCCOC)S[C](C2=[S]C=CS2)S1,3.377411375544034,1.0419534488988575,0.0,H16C13(SO)4
CCC1=C(O)S[C](C2=[S]C=CS2)S1,3.180610546647222,0.7864807266538265,0.0,H8C8S4O
CC1=C(N(=O)=O)S[C](C2=[S]C=CS2)S1,3.5364007539043087,2.119146523081872,0.0,H5C7S4NO2
CNC1=C(N(=O)=O)S[C](C2=[S]C=CS2)S1,3.5399067720150925,1.616124402274727,0.0,H6C7S4(NO)2
CC(=O)C1=CSC(=[S]1)[C]1SC=C(OCCOCCOCCOC)S1,3.388503168267198,1.2269269477634226,0.0,H20C15S4O5
CC(=O)c1cscc1N,4.004083488592732,0.8314961706615578,0.0,H7C6SNO
CC(=O)c1cc2c(cc1NC)[nH]s[nH]2,3.354277130476112,0.8106493607789163,0.0,H11C9SN3O
C=CC1=C(F)S[C](C2=[S]C=CS2)S1,3.3686721294085147,0.9093757444803487,0.0,H5C8S4F
C=Cn1c2c(cccc2N(=O)=O)[nH]s1,3.609238403872587,2.0529405431494525,0.0,H7C8SN3O2
COCCOn1c2c(cccc2[nH]s1)C(Cl)(Cl)Cl,4.003973277047043,2.914281513550668,0.0,H11C10SN2Cl3O2
c1c(C#N)csc1C(Cl)(Cl)Cl,5.769275039654167,2.806939306401182,0.0,H2C6SNCl3
CC(=O)n1c2ccccc2n(OC)s1,4.219604851613985,1.9708617004122064,0.0,H10C9S(NO)2
CC(=O)n1c2ccc(cc2[nH]s1)N(=O)=O,4.0282267671515,2.082910328668368,0.0,H7C8S(NO)3
CC(=O)c1cc(cs1)C(=O)O,5.631069487726199,1.2875564253314224,0.0,H6C7SO3
CC(=O)c1ccsc1Cl,5.154758156551543,1.0997611250073531,0.0,H5C6SClO
CCc1cc(NC)sc1,3.4554021514028137,-0.5576687336491886,0.0,H11C7SN
Cc1c(ccs1)C(C)(C)C,4.500878022977849,-0.4127020453583099,0.0,H14C9S
Cc1cscc1C(C)(C)C,4.719884315277886,-0.6995817903793067,0.0,H14C9S
c1c(csc1N)C(F)(F)F,4.082441982763703,0.0416132657206618,0.0,H4C5SNF3
CC(=O)c1cc(C#N)cs1,5.747514534091897,1.4111975983556475,0.0,H5C7SNO
c1csc(c1C(F)(F)F)C(F)(F)F,5.908636169276724,1.0341964384730091,0.0,H2C6SF6
c1csc(C#N)c1F,5.628217672104801,0.9227088926323632,0.0,H2C5SNF
CC(=O)c1cscc1c1ccccc1,4.7587823599220425,0.7854545989699546,0.0,H10C12SO
c1csc(c1C(F)(F)F)Cl,5.294387636664032,1.4617441534297542,0.0,H2C5SClF3
c1csc(c1C(=O)O)Cl,5.220161389779241,1.3700747999515444,0.0,H3C5SClO2
c1c2c3c4c5c1c(=O)n(c(=O)c5cc1c4c4c5c3c(cc3c5c(cc4cc1c1cc(ccc1C)C)c(=O)n(c3=O)C)c(c2)c1c(ccc(c1)C)C)C,4.575867366862076,2.1583124365875848,0.0,H15C23NO2
c1c2c3c4c5c1c(=O)n(c(=O)c5cc1c4c4c5c3c(cc3c5c(cc4c(c1c1c(c(c(c(c1C)C)C)C)C)c1c(c(c(c(c1C)C)C)C)C)c(=O)n(c3=O)C)c(c2c1c(c(c(c(c1C)C)C)C)C)c1c(c(c(c(c1C)C)C)C)C)C,4.406820737241651,2.1125794773630333,0.0,H35C37NO2
c1c[nH]c(=O)c(=O)[nH]1,4.623822513821869,0.8198579597479694,0.0,H2C2NO
C#Cc1cscc1OCCOCCOC,4.604951609593263,0.3358345359898522,0.0,H14C11SO3
CCc1cc(cs1)C(C)(C)C,4.528396566217998,-0.5229725103548843,0.0,H16C10S
COc1cscc1C(=O)O,4.759760674479912,0.7463619493915759,0.0,H6C6SO3
COCCOCCOc1c(ccs1)Cl,4.484787343937205,1.2114127609325809,0.0,H13C9SClO3
c1cc(c2c(c1)n(O)s[nH]2)C(=O)O,3.915161015467311,2.092749984114198,0.0,H6C7SN2O3
CN(C)C1=C(C#N)S[C](C2=[S]C=CS2)S1,3.328172708433704,1.06020085051714,0.0,H8C9(S2N)2
Cc1cscc1O,4.494796812022832,-0.4135517915623494,0.0,H6C5SO
COCCOCCOc1ccsc1F,4.48897914332847,0.327168964673183,0.0,H13C9SO3F
CC(=O)c1cc(cc2c1[nH]s[nH]2)N(C)C,3.0101915680075764,0.9320790619109176,0.0,H13C10SN3O
COCCOCCOn1c2cccc(c2[nH]s1)N(=O)=O,4.038776596180105,2.228995247010608,0.0,H15C11SN3O5
c12c(c(c(c(c1F)C(=O)c1c(c(c3c(c1F)Oc1c(O3)cc3c(c1)CCC3)F)F)F)F)Oc1c(O2)cc2c(c1)CCC2,4.437971953958913,1.628780210093828,0.0,H16C31O5F6
c1cc2c3c4c1c(=O)n(c(=O)c4cc1c3c3c4c2ccc2c4c(cc3n1C)c(=O)n(c2=O)C)C,4.439259259213577,2.328916697546083,0.0,H15C27N3O4
COc1cscc1O,4.449237458707648,-0.4270843637881625,0.0,H6C5SO2
c1c(csc1C(=O)O)N,4.1468003559981295,0.9689329139306212,0.0,H5C5SNO2
COc1cc(cs1)Cl,4.385532436242647,1.125634946898208,0.0,H5C5SClO
c1cc(N)sc1C#N,4.200151022405043,0.5475717451932725,0.0,H4C5SN2
C=Cc1ccsc1C#N,5.069648605121619,1.0975072196866678,0.0,H5C7SN
CN(C)c1ccsc1C(=O)O,4.048601949334261,0.7925831597545767,0.0,H9C7SNO2
C#Cc1cscc1C(=O)O,5.147261455674743,0.7982381343113958,0.0,H4C7SO2
Cc1cc(cs1)C(=O)C,5.015128766228008,0.7741467097672285,0.0,H8C7SO
COCCOc1ccc(N(=O)=O)s1,4.995916857101838,1.9707585066804316,0.0,H9C7SNO4
Cn1ccc(=c2cc(Cl)n(C)c(c2)OC)cc1,1.9132660200317333,1.28585238589003,0.0,H15C13N2ClO
C#Cc1c(ccs1)OCCOC,4.415825158297229,0.5748318374295196,0.0,H10C9SO2
C=Cc1cc(C(=O)O)sc1,4.815969777029386,1.0958494450365834,0.0,H6C7SO2
Cn1ccc(=c2ccn(COCCOCCOC)c(c2)c2ccccc2)cc1,2.042496326933906,0.2010974858145346,0.0,H28C23N2O3
C#Cc1ccc(OCCOC)s1,4.155605197892873,0.5332670690055239,0.0,H10C9SO2
CC(=O)c1cc(cs1)OC,4.669082014018931,1.1442895777632658,0.0,H8C7SO2
COCCOc1cc(cs1)N,3.6242200666434656,-0.6878708978569192,0.0,H11C7SNO2
CC(C)(C)c1cscc1NC,3.6666048120219785,-0.7704860824109345,0.0,H15C9SN
c1csc(c1C#N)C(Cl)(Cl)Cl,5.744274885518825,2.9546771203764366,0.0,H2C6SNCl3
CC(C)(C)c1c(ccs1)C(=O)O,5.0323589355808505,0.6013351402631089,0.0,H12C9SO2
CC(C)(C)c1c(ccs1)F,4.769129480469564,-0.2010298114895703,0.0,H11C8SF
C#Cc1cc(cs1)O,4.533419466582563,0.6220499177958119,0.0,H4C6SO
Cc1cc(cs1)C(C)(C)C,4.557622729914874,-0.6105556990281911,0.0,H14C9S
c1cnc(c(Cl)n1)N(=O)=O,6.478609363971918,2.49164755955062,0.0,H2C4N3ClO2
Cc1cscc1Cl,5.00356829823213,1.113691005195142,0.0,H5C5SCl
CC(=O)c1ccsc1NC,3.9350232793891338,0.4325448418618181,0.0,H9C7SNO
CCc1cc(N)sc1,3.629650563606993,-0.6460873308555164,0.0,H9C6SN
c1ccc(cc1)c1c(ccs1)O,4.114757171877136,0.3418683474279533,0.0,H8C10SO
COCCOc1cc(cs1)Cl,4.378119266149588,0.0979728308971972,0.0,H9C7SClO2
c1c(csc1Cl)O,4.527861791773466,1.2814119751252293,0.0,H3C4SClO
c1c(c(cs1)C(Cl)(Cl)Cl)C(=O)O,5.714000552908692,0.8844384431737127,0.0,H3C6SCl3O2
c1cc(C(F)(F)F)sc1,5.531624165656103,0.5029027701217275,0.0,H3C5SF3
c1c(c(cs1)F)Cl,5.320815844248136,1.2721646570804297,0.0,H2C4SClF
COCCOCCOc1cc(F)sc1,4.350084650851931,0.3096893376838125,0.0,H13C9SO3F
C#Cc1c(=O)[nH]ccn1,4.991129792358697,1.4924158729150805,0.0,H4C6N2O
COCCOCCOC1=C(C(F)(F)F)S[C](C2=[S]C=CS2)S1,3.4160771411057795,0.8593630522751483,0.0,H13C12S4(OF)3
CC(=O)n1c2ccccc2n(O)s1,4.2415142225050655,2.1211650336095773,0.0,H8C8S(NO)2
C1=C[S]=C([C]2SC(=C(C(=O)O)S2)C#N)S1,3.5786118035772234,2.0192922084839666,0.0,H3C8S4NO2
c1cc2c(cc1N(=O)=O)n(N(=O)=O)s[nH]2,4.352154359593987,3.2062362524207857,0.0,H4C6S(NO)4
CC(=O)c1ccc2c(c1)n(NC)s[nH]2,3.5965198302706995,0.9462969854881522,0.0,H11C9SN3O
CNc1c(ccs1)C(F)(F)F,3.999228749138274,0.0829238308375353,0.0,H6C6SNF3
c1cc(c2c(c1)n(C#N)s[nH]2)C(=O)O,3.896306487052789,3.2718076683246182,0.0,H5C8SN3O2
c12c3c4c5c6c1c1c7cc(cc1c1c2c(c2c3c(c3c4c(cc(c3)C)c3c5c(c4c6c7cc(c4)C)cc(c3)C)cc(c2)C)cc(c1)C)C,4.0243090190429935,0.7610830005738536,0.0,H5C8
CCc1cc(C#N)cs1,5.193158205654617,0.5167752860012116,0.0,H7C7SN
c1cc2c3c4c1c(=O)n(c(=O)c4cc(c3c1c3c2c(cc2c3c(cc1)c(=O)n(c2=O)C)SC)SC)C,4.190439989719016,2.516061705655011,0.0,H9C14SNO2
C#Cc1cc(OCCOCCOCCOC)sc1,4.355061370779003,0.3148476908769226,0.0,H18C13SO4
CC(=O)c1cccc2c1[nH]sn2O,3.8708225879650855,2.1330129925896477,0.0,H8C8S(NO)2
C#Cc1cc(OC)sc1,4.3271519741043445,0.3097175014678215,0.0,H6C7SO
Cn1c2cc(ccc2[nH]s1)C(Cl)(Cl)Cl,3.3759005886255182,2.6832148638219224,0.0,H7C8SN2Cl3
Cc1cc(OCCOCCOC)sc1,4.1293978651207,-0.7442991146366693,0.0,H16C10SO3
COCCOn1c2ccccc2n(C(Cl)(Cl)Cl)s1,4.291098691881052,3.9499467342917343,0.0,H11C10SN2Cl3O2
C=Cn1c2ccc(cc2[nH]s1)N(C)C,3.069078319711116,2.1516742657600845,0.0,H13C10SN3
CC(=O)C1=C(C(F)(F)F)S[C](C2=[S]C=CS2)S1,3.512224699241051,1.7813558761568855,0.0,H5C9S4OF3
c1ccc2c3c1c(=O)n1c(c3ccc2)nc2c1cc(c(c2)OC)OC,4.1261499551597804,1.7077491399664724,0.0,H14C20N2O3
CC(=O)c1cc(c2c(c1)[nH]s[nH]2)C(F)(F)F,3.6819820902106586,1.227116007017321,0.0,H7C9SN2OF3
CC(C)(C)c1cc(OCCOC)sc1,4.111397259859222,-0.7165272306869155,0.0,H18C11SO2
c1cc2c3c4c1c(=O)n(c(=O)c4cc1c3c3c4c2ccc2c4c(cc3c3c1cncc3)c(=O)n(c2=O)C)C,4.645413843494316,2.471015270611679,0.0,H15C31N3O4
CNc1cscc1N,3.6793173882411794,-0.6631320110849628,0.0,H8C5SN2
CCn1c2ccc(cc2[nH]s1)O,3.186908229593973,1.9518916106913824,0.0,H10C8SN2O
COCCOc1ccsc1F,4.492428431136068,0.3237725458617206,0.0,H9C7SO2F
CNc1cc(=c2ccn(C)cc2)ccn1COCCOCCOC,1.7739387903508033,-0.4174573272015549,0.0,H9C6NO
CNc1ccc(N(=O)=O)s1,4.379936426039057,1.7074976006566431,0.0,H6C5S(NO)2
c1c(csc1C(Cl)(Cl)Cl)F,5.374846052387147,2.862942639164976,0.0,H2C5SCl3F
c1ccc(cc1)c1c(ccs1)Cl,4.57605852955894,0.5446782798331697,0.0,H7C10SCl
CN(C)c1ccsc1Cl,3.746012209803303,1.2599452654299967,0.0,H8C6SNCl
C=Cc1ccc(c2ccccc2)s1,4.093332400361396,0.896753635229834,0.0,H10C12S
COCCOCCOc1ccsc1OC,3.834072043964261,-0.3802024773453012,0.0,H16C10SO4
c1c(csc1C#N)Cl,5.482401594069961,1.0610592472308782,0.0,H2C5SNCl
COc1cc(cs1)N(=O)=O,4.804201778695278,1.968193050064292,0.0,H5C5SNO3
CC(=O)c1cc(cs1)C(Cl)(Cl)Cl,5.614653499310952,2.680465439190448,0.0,H5C7SCl3O
CC(=O)c1cc(cs1)c1ccccc1,4.718714699248812,1.1308389825659106,0.0,H10C12SO
C#Cc1cnc(cn1)F,5.757607187384201,1.2351886368338456,0.0,H3C6N2F
c1ccc(cc1)c1ccc(N)s1,3.485696353761887,0.3169953112534132,0.0,H9C10SN
CC(C)(C)c1ccsc1OC,3.990813996033103,-0.2341551869089015,0.0,H14C9SO
CN(C)c1cc(cs1)C(F)(F)F,3.803087839832733,0.0854451859646361,0.0,H8C7SNF3
CNc1cc(cs1)N(=O)=O,4.0634129150872464,1.8872744680862523,0.0,H6C5S(NO)2
C#Cc1ccc(F)s1,4.731874812930618,0.6907520333494177,0.0,H3C6SF
CNc1cscc1OCCOC,3.6211985036949046,-0.8579643739198217,0.0,H13C8SNO2
COCCOc1c(ccs1)c1ccccc1,3.999529636291845,0.1635809930572578,0.0,H14C13SO2
C(#N)c1cscc1O,5.015724894181039,0.6022182694010554,0.0,H3C5SNO
CC(C)(C)n1c2ccccc2[n]s1.[F],4.514388339006109,3.0583448655357643,0.0,H13C10SN2F
C=Cc1c(F)nccn1,5.3821188090129,1.2889692376607855,0.0,H5C6N2F
c1cnc(cn1)Cl,5.918372840523807,1.0481562647924876,0.0,H3C4N2Cl
CC(C)(C)c1c(ccs1)Cl,4.803131141359335,1.192235456526396,0.0,H11C8SCl
COC1=CS[C](C2=[S]C(=CS2)N)S1,3.1393446979942383,0.336276035240735,0.0,H7C7S4NO
CNC1=CSC(=[S]1)[C]1SC=C(N)S1,2.9982396914652782,0.6379064211083461,0.0,H8C7(S2N)2
CC(=O)c1c(ccs1)O,4.952497747157031,0.8865662074073044,0.0,H6C6SO2
C=CC1=C(N)S[C](C2=[S]C=CS2)S1,3.17568545214599,0.4334505319580786,0.0,H7C8S4N
c1c(csc1F)C(Cl)(Cl)Cl,5.284186962338572,2.694901113705418,0.0,H2C5SCl3F
c1cc2c(c(c1N)N)[nH]s[nH]2,3.3721163586247718,2.18370010262297,0.0,H8C6SN4
c1cc2c3c4c1c(=O)n(c(=O)c4ccc3c1c3c(cccc23)c(cc1)NC(=O)C)C,3.9865756869345206,2.031270520872204,0.0,H16C25N2O3
c1cc2c3c4c1c(=O)n1c(c4ccc3c3c4c2ccc2c4c(cc3)c3n(c2=O)c2c(n3)cc(c(c2)C)C)nc2c1cc(c(c2)C)C,4.068485911609605,2.507927504653344,0.0,H12C20N2O
c1cc2c3c4c1c(=O)n1c(c4ccc3c3c4c2ccc2c4c(cc3)c3n(c2=O)c2c(n3)cc(c(c2)OC)OC)nc2c1cc(c(c2)OC)OC,3.9525138589538975,2.5040427802756318,0.0,H12C20N2O3
COc1ccc(O)s1,3.737841534648033,-0.0472684583532099,0.0,H6C5SO2
c1c2c3c4c5c1c(=O)n(c(=O)c5cc1c4c4c5c3c(cc3c5c(cc4c(c1c1ccccc1F)c1c(cccc1)F)c(=O)n(c3=O)C)c(c2c1c(cccc1)F)c1ccccc1F)C,4.7709012572100615,2.23459189668356,0.0,H13C27N(OF)2
CCc1cc(cs1)N(C)C,3.4869145938115254,-0.5737022633424202,0.0,H13C8SN
Cn1ccc(=c2c(cn(C)cc2N)N)cc1,1.719512068824406,-0.159229316288838,0.0,H4C3N
CC(=O)n1c2cccc(c2[nH]s1)NC,3.7280361900280696,2.6604814832404373,0.0,H11C9SN3O
c1cc2c3c4c1c(=O)n1c(c4ccc3c3ccc4c5c3c2ccc5c2n(c4=O)c3c(n2)cc(c(c3)OC)OC)nc2c1cc(c(c2)OC)OC,4.013164079771377,2.4957225268604817,0.0,H12C20N2O3
c1c2c3c4c5c1c(=O)n(c(=O)c5cc1c4c4c5c3c(cc3c5c(cc4c(c1c1ccccc1C(F)(F)F)c1c(cccc1)C(F)(F)F)c(=O)n(c3=O)C)c(c2c1c(cccc1)C(F)(F)F)c1ccccc1C(F)(F)F)C,4.7516458887927,2.2513810620090227,0.0,H13C29N(OF3)2
c1ccc(cc1)c1cc(C(F)(F)F)sc1,4.762824295341124,0.5965304643083074,0.0,H7C11SF3
c1cc2c3c4c1c1n(c(=O)c4ccc3c3c4c2ccc2c4c(cc3)c3n(c2=O)c2c(n3)cccc2)c2c(n1)cccc2,4.226986298681004,2.549006421978993,0.0,H8C18N2O
c1c2c3c4c5c1c(=O)n(c(=O)c5cc1c4c4c5c3c(cc3c5c(cc4c(c1)c1c(cccc1)C(F)(F)F)c(=O)n(c3=O)C)cc2c1c(cccc1)C(F)(F)F)C,4.751888274180237,2.192355034284992,0.0,H10C22NO2F3
CC(=O)n1c2cc(ccc2[nH]s1)OC,3.6083388390594338,2.858352353557712,0.0,H10C9S(NO)2
COCCOc1ccsc1C(F)(F)F,4.855677458302671,0.3732878711249214,0.0,H9C8SO2F3
C#Cn1c2ccccc2n(N(=O)=O)s1,4.167705033608945,3.14003067521262,0.0,H5C8SN3O2
C=Cn1c2ccc(cc2[nH]s1)N(=O)=O,3.724825355582289,1.9489661202547723,0.0,H7C8SN3O2
C#Cc1ccc(C(=O)O)s1,5.149749403384339,1.3996868428417657,0.0,H4C7SO2
COCCOCCOc1c(ccs1)N,3.427984837236727,-0.5613958496855047,0.0,H15C9SNO3
Cc1c(ccs1)OCCOC,4.131878520177997,-0.3749973015277645,0.0,H12C8SO2
c1csc(c1Cl)F,5.040127946218126,0.5490437395579648,0.0,H2C4SClF
c1c(c(cs1)O)F,4.832410242086189,-0.0971867923675744,0.0,H3C4SOF
CN(C)c1cscc1F,3.824482137313317,-0.2658274853041802,0.0,H8C6SNF
c1(=O)n(c(=O)c2ccc3c4c2c1cc1c4c2c4c3ccc3c(=O)n(c(=O)c(c43)cc2c2c1C(=O)N(C2=O)C)C)C,4.885066871263552,2.4796883957984392,0.0,H15C31(NO2)3
c1(=O)n(c(=O)c2ccc3c4c2c1cc1c4c2c4c3ccc3c(=O)n(c(=O)c(c43)cc2cc1)C)C,4.695090461509244,2.325088278973999,0.0,H7C14NO2
COc1cc(C#N)cs1,4.651733268341195,0.5607241825433449,0.0,H5C6SNO
CNc1cc(C#N)cs1,3.9318097999945167,0.4157131424159161,0.0,H6C6SN2
c1c(c(cs1)O)Cl,4.804086679983447,-0.0217097470071165,0.0,H3C4SClO
CCc1cscc1O,4.490151801588217,-0.4318157050569424,0.0,H8C6SO
COCCOc1cc(C#N)sc1,4.75059569535515,0.9332437118660892,0.0,H9C8SNO2
CC(=O)c1ccsc1C#N,5.711932286370574,1.6746726062679955,0.0,H5C7SNO
C#Cc1ccsc1C(Cl)(Cl)Cl,5.233884711081918,2.89575871367706,0.0,H3C7SCl3
C=Cc1cscc1c1ccccc1,4.611585437492613,0.3183265928324545,0.0,H10C12S
c1ccc(cc1)c1cc(cs1)C(F)(F)F,4.671919783109479,0.7024162120920665,0.0,H7C11SF3
COc1cc(N)sc1,3.5101114658806183,-0.5660187699199013,0.0,H7C5SNO
c1ccc(cc1)c1cc(N(=O)=O)sc1,4.928528079942771,2.193958919511352,0.0,H7C10SNO2
c1c(csc1N)F,3.8922536289806886,-0.439205987657624,0.0,H4C4SNF
COCCOc1cc(cs1)c1ccccc1,4.10330771544759,0.2181735788595689,0.0,H14C13SO2
Cc1ccc(C(=O)C)s1,5.049505696589767,1.035877663891006,0.0,H8C7SO
CC(=O)c1ccc(N(=O)=O)s1,5.971676123744691,2.5771804847368918,0.0,H5C6SNO3
C(#N)c1cnc(cn1)Cl,6.3680133229296185,1.6860508804398706,0.0,H2C5N3Cl
CC(C)(C)c1cscc1C(F)(F)F,5.218679874150984,0.1200057033653139,0.0,H11C9SF3
C=Cc1cc(Cl)sc1,4.567913607262744,0.4656287552876166,0.0,H5C6SCl
CCc1cc(N(C)C)sc1,3.4023489271909058,-0.7238991510443156,0.0,H13C8SN
C#Cc1cscc1CC,4.866347450091416,0.2698645304459206,0.0,H8C8S
C#Cc1ccc2c(c1)n(C(C)(C)C)s[nH]2,2.9934766979109555,2.1224153667659267,0.0,H14C12SN2
CNc1cc(OCCOC)sc1,3.551497880014358,-0.7001958669556188,0.0,H13C8SNO2
CC(=O)c1cscc1O,4.77778437403831,0.7953804111071805,0.0,H6C6SO2
c1csc(c1C#N)Cl,5.368746343128441,1.4649404189054622,0.0,H2C5SNCl
C1=C[S]=C([C]2SC(=C(N(=O)=O)S2)C#N)S1,3.7524018753989368,2.8902635706268485,0.0,H2C7S4(NO)2
C1=C[S]=C([C]2SC(=C(C(F)(F)F)S2)C(Cl)(Cl)Cl)S1,3.535078982700361,3.073421838891227,0.0,H2C8S4(ClF)3
C1=C[S]=C([C]2SC(=C(O)S2)N)S1,3.127573807084991,0.8028233858291061,0.0,H5C6S4NO
CC(=O)C1=C(N)S[C](C2=[S]C=CS2)S1,3.294743991400173,0.8231426214057138,0.0,H7C8S4NO
CC(C)(C)c1ccc(C(=O)O)s1,5.0943276649428295,0.9262267857789994,0.0,H12C9SO2
c1c2c3c4c5c1c(=O)n(c(=O)c5cc1c4c4c5c3c(cc3c5c(cc4on1C)c(=O)n(c3=O)C)on2C)C,3.2725689829763724,2.428817913701641,0.0,H8C14N2O3
c1ccc(cc1)c1cc(cs1)N(=O)=O,4.817705115006538,1.988340429424716,0.0,H7C10SNO2
c1(=O)n(c(=O)c2cc3c4c5c2c1cc1c5c2c5c4c(cc4c(=O)n(c(=O)c(c54)cc2n2n1c(=O)n(c2=O)C)C)n1n3c(=O)n(c1=O)C)C,4.003945004421984,2.760520846140571,0.0,H2C4NO
CC(=O)n1c2ccc(cc2[nH]s1)Cl,3.685001511630253,2.02587656879914,0.0,H7C8SN2ClO
CCc1cc(O)sc1,4.215147444623289,-0.401861000095232,0.0,H8C6SO
C=Cc1cc(C(=O)C)sc1,4.791034628154739,1.165243565128185,0.0,H8C8SO
CCC1=C(c2ccccc2)S[C](C2=[S]C=CS2)S1,3.1540837059670594,0.4999063477676828,0.0,H6C7S2
COC1=C(F)S[C](C2=[S]C=CS2)S1,3.351472823219956,1.0685893446367118,0.0,H5C7S4OF
c1ccc(cc1)C1=C(N(=O)=O)S[C](C2=[S]C=CS2)S1,3.55050977752544,2.2709456796452288,0.0,H7C12S4NO2
c1ccc2c(c1)n(Cl)sn2Cl,4.776323677842447,4.769315644430753,0.0,H4C6S(NCl)2
C1=C(C(=O)O)[S]=C(C2=[S]C(=CS2)N(=O)=O)S1,3.780454254288634,2.295643305807608,0.0,H3C7S4NO4
COCCOCCOC1=C(F)S[C](C2=[S]C=CS2)S1,3.3675932660640684,1.0554752698968517,0.0,H13C11S4O3F
c1cc2c3c4c1c(=O)n1c(c4ccc3c3ccc4c5c3c2ccc5c2n(c4=O)c3c(n2)cc(c(c3)C)C)nc2c1cc(c(c2)C)C,4.117184492615342,2.500712574934005,0.0,H12C20N2O
c1cc2c3c4c1c(=O)n(c(=O)c4cc1c3c3c4c2ccc2c4c(cc3ss1)c(=O)[nH]c2=O)C,4.364546170736139,2.770581887985464,0.0,H10C25S2(NO2)2
C#Cc1ccc2c(c1)[nH]sn2CC,3.2886354438902345,2.0343756390953787,0.0,H10C10SN2
C#Cn1c2ccc(cc2[nH]s1)C(F)(F)F,3.7620476143616544,3.2530612806709542,0.0,H5C9SN2F3
C=Cc1cc(cs1)O,4.263031281423173,0.5009048939951755,0.0,H6C6SO
C=Cc1ccc(C#N)s1,4.874468902571243,1.2913336973921106,0.0,H5C7SN
C#Cc1cc(cs1)C(=O)O,5.064312177911779,0.9190617943873804,0.0,H4C7SO2
c1ccc(cc1)c1cscc1C#N,4.890574436308816,0.4511755484832975,0.0,H7C11SN
c1csc(C#N)c1O,5.092274998690845,0.6770966534328182,0.0,H3C5SNO
COCCOc1ccsc1N,3.468301982762205,-0.5227195016253972,0.0,H11C7SNO2
c1cc(Cl)sc1C(F)(F)F,5.370693249622127,1.3790267982854858,0.0,H2C5SClF3
COCCOCCOc1c(ccs1)F,4.363402389198745,0.0461222301215458,0.0,H13C9SO3F
COCCOCCOc1cc(N(=O)=O)sc1,4.8990305371095015,2.0795692850239,0.0,H13C9SNO5
c1cc(Cl)sc1C(Cl)(Cl)Cl,5.192382354676374,2.9555222270515515,0.0,H2C5SCl4
C=Cc1cscc1OCCOC,4.593841574359976,0.334623411713983,0.0,H12C9SO2
COCCOc1cc(O)sc1,3.9533753060655727,-0.355877652595518,0.0,H10C7SO3
CNc1ccsc1OC,3.2425386630216964,-0.2371549943512945,0.0,H9C6SNO
C#Cc1c(ccs1)C#N,5.199391710562486,1.2480943104688778,0.0,H3C7SN
COCCOCCOCCOc1ccsc1OC,3.87941491168167,-0.347421491931891,0.0,H20C12SO5
C#Cc1cc(cs1)NC,3.806011278522056,0.5573283188474307,0.0,H7C7SN
c1ccc(cc1)c1cc(C#N)cs1,4.70904396935075,0.8345605942609837,0.0,H7C11SN
COCCOCCOCCOn1c2cccc(c2[nH]s1)N(=O)=O,4.027742624924576,1.971715414046776,0.0,H19C13S(NO2)3
CCn1c2ccccc2n(OC)s1,3.705611694041727,1.4987742671852176,0.0,H12C9SN2O
c1c(csc1O)Cl,4.514237544395291,0.124453730602545,0.0,H3C4SClO
C#Cc1c(ccs1)N,3.931029753022449,0.3902749720597058,0.0,H5C6SN
c1csc(c1O)C(=O)O,5.024572953197639,0.8202185595633638,0.0,H4C5SO3
COCCOCCOc1cscc1C#N,4.827442591709405,0.6160118885905832,0.0,H13C10SNO3
CC(C)(C)c1ccc(N(=O)=O)s1,5.455970907537994,2.091107540357916,0.0,H11C8SNO2
CN(C)n1c2ccc(cc2[nH]s1)O,3.4083821617547074,1.868066744065436,0.0,H11C8SN3O
C=Cc1cscc1N,3.915736816512072,0.3055797357170378,0.0,H7C6SN
CN(C)c1cc(O)sc1,3.421302690084849,-0.3734962590046051,0.0,H9C6SNO
COc1cscc1C(F)(F)F,4.686955944840156,0.2576651255563775,0.0,H5C6SOF3
COc1ccc(C(Cl)(Cl)Cl)s1,4.557901858855621,3.1293748442345533,0.0,H5C6SCl3O
C#Cc1c(C(=O)O)nccn1,5.865919689909424,1.6135955068762995,0.0,H4C7(NO)2
c1c(c(cs1)N(=O)=O)C(F)(F)F,6.16878608758052,2.140555718809628,0.0,H2C5SNO2F3
C(#N)c1cnc(cn1)F,6.536238609598149,1.583620015133056,0.0,H2C5N3F
CC(=O)c1cscc1F,5.366648791697662,0.932633801346674,0.0,H5C6SOF
CC(=O)c1c(ccs1)N,4.274575613069464,0.7496453620420653,0.0,H7C6SNO
COCCOn1c2ccccc2n(C(=O)O)s1,4.2030672446431705,2.1790786191464577,0.0,H12C10S(NO2)2
C=CC1=C(OCCOCCOC)S[C](C2=[S]C=CS2)S1,3.1918494223442395,0.5458309540495976,0.0,H16C13S4O3
COCCOC1=C(OCCOC)S[C](C2=[S]C=CS2)S1,3.216316823849047,0.3967956441425486,0.0,H4C3SO
C#CC1=C(N)S[C](C2=[S]C=CS2)S1,3.212919126113411,0.5990540589351441,0.0,H5C8S4N
C=CC1=C(O)S[C](C2=[S]C=CS2)S1,3.2736389481957304,0.9137212228903082,0.0,H6C8S4O
CCn1c2cccc(C)c2[nH]s1,3.204848488164862,1.85996150957144,0.0,H12C9SN2
CN(C)c1cc(cs1)C(=O)O,3.7329543565043424,0.6014086463779678,0.0,H9C7SNO2
CC(=O)c1cc(cc2c1[nH]s[nH]2)c1ccccc1,3.2906900367102936,1.015460761221766,0.0,H12C14SN2O
c1c2c3c4c5c1c(=O)n(c(=O)c5cc1c4c4c5c3c(cc3c5c(cc4c4c1c1c(c(c(c(c1F)F)F)F)c1c4c(c(c(c1F)F)F)F)c(=O)n(c3=O)C)c1c2c2c(c(c(c(c2c2c1c(c(c(c2F)F)F)F)F)F)F)F)C,4.622785379129345,2.3905546807160136,0.0,H5C27N(OF4)2
C=Cc1cc(cs1)N,3.7560400047674194,0.4442736068172963,0.0,H7C6SN
C#Cc1ccc(O)s1,4.2701880223226905,0.4671276889290312,0.0,H4C6SO
COCCOn1c2c(cccc2[nH]s1)C#N,4.160651285075437,4.104413599694089,0.0,H11C10SN3O2
c1csc(C#N)c1C(F)(F)F,5.847285995475977,1.3792987243738026,0.0,H2C6SNF3