smiles,IE,EA,charge,formula_pretty
COc1cc(cc2c1ONO2)C#N,4.750776359900192,0.777717831098562,0.0,H6C8N2O3
COCCOCCOCCOc1cc2c(cc1C(=O)O)ONO2,4.284488755581696,0.872334637324093,0.0,H19C14NO8
CCc1cc(cc2c1ONO2)N(C)C,3.5270383589173435,-0.5200119580462341,0.0,H7C5NO
COCCOCCOc1ccc2c(c1C(Br)(Br)Br)ONO2,4.30623209347832,3.202546260895906,0.0,H14C12Br3NO5
CN(C)c1cc(c2c(c1)ONO2)OCCOC,3.6439603364866335,-0.6229089380343793,0.0,H16C11(NO2)2
CNc1c(ccc2c1ONO2)c1ccccc1,3.948251500443439,0.0717200659979426,0.0,H12C13(NO)2
CN(C)N1Oc2ccc(cc2O1)c1ccccc1,4.328289856218907,0.2788751339481679,0.0,H7C7NO
CN(C)c1cc2c(cc1c1ccccc1)ONO2,3.642210067622364,0.183983555337909,0.0,H7C7NO
CN(C)c1ccc2c(c1)ON(c1ccccc1)O2,3.4785877797345166,-0.3464591803844086,0.0,H7C7NO
CC(=O)c1c2CCCCc2c(c(c1O)O)Cl,4.46593978435485,1.1635549001162873,0.0,H13C12ClO3
COCCOc1cc(c2c(c1)ONO2)C(=O)O,4.305667100803111,1.0352874516989687,0.0,H11C10NO6
CNc1ccc(c2c1ONO2)OCCOCCOC,3.6774972677572806,-0.2340233967319362,0.0,H18C12N2O5
c1ccc(cc1)c1cc(cc2c1ONO2)C(=O)O,4.675912365249678,0.924941894166841,0.0,H9C13NO4
CC(=O)c1c2CCCCc2cc(c1O)O,4.248682971783273,1.0163508374185768,0.0,H14(C4O)3
COCCOc1cc(c2c(c1)ONO2)C(F)(F)F,4.387919582104223,0.5530209527074477,0.0,H10C10NO4F3
CN(C)c1cc(cc2c1ONO2)C(F)(F)F,4.130355768416484,0.344661242231814,0.0,H9C9N2O2F3
Cc1c(ccc2c1ONO2)NC,3.617777352457415,-0.4637804442012565,0.0,H5C4NO
c1c(cc2c(c1C(F)(F)F)ONO2)O,4.466942428609036,0.5472988231755154,0.0,H4C7N(OF)3
CCc1cc(c2c(c1)ONO2)OCCOC,4.333825606817845,-0.5112522924886433,0.0,H15C11NO4
CC(C)(C)c1cc2c(cc1NC)ONO2,3.540857208497618,-0.8094808798545272,0.0,H16C11(NO)2
CC(C)(C)c1cc2c(cc1OCCOCCOC)ONO2,3.987330454530456,-0.307878496669582,0.0,H23C15NO5
C=Cc1cc(c2c(c1)ONO2)OCCOCCOC,4.309016988152143,0.441734055444249,0.0,H17C13NO5
Cc1c2CCCCc2c(C(=O)C)c(c1O)O,4.223186784036079,0.977289255080541,0.0,H16C13O3
CNc1c2CCCCc2c(c(c1O)O)OCCOC,4.146076334539975,-0.6277398756959882,0.0,H21C14NO4
CC(C)(C)c1ccc(c2c1ONO2)C(=O)O,4.539089965228049,0.9086032758765216,0.0,H13C11NO4
CC(C)(C)c1ccc(c2c1ONO2)N,4.097193774644984,-0.6070602743187918,0.0,H7C5NO
CN(C)c1cc2c(cc1OCCOCCOCCOC)ONO2,3.4287996195394954,-0.2324573081226844,0.0,H24C15(NO3)2
CNc1ccc(c2ccccc2)c2c1ONO2,3.865445828037628,0.1505121218702698,0.0,H12C13(NO)2
CNc1cc2c(cc1OCCOCCOCCOC)ONO2,3.3668486918591958,-0.3249510440786252,0.0,H11C7NO3
CN(C)c1cc(c2ccccc2)c2c(c1)ONO2,3.5935080008326623,0.3647921968018637,0.0,H7C7NO
C1CCc2c(C1)c(c(c(c2N)O)O)N,3.093434285170224,-0.2585272070813516,0.0,H7C5NO
COCCOCCOc1cc(C#N)c2c(c1)ONO2,4.41402056735169,0.9231163640521118,0.0,H14C12N2O5
CN(C)c1cc2c(cc1OCCOCCOC)ONO2,3.4159810549841496,-0.2545542171414126,0.0,H20C13N2O5
CC(C)(C)c1cc(c2c(c1)ONO2)N(C)C,3.8746964604375536,-0.844758596819156,0.0,H9C6NO
CC(=O)c1cccc2c1ON([N][C](C)O)O2,4.510839087457134,1.037913518951973,0.0,H5C5NO2
CC(C)(C)c1cc(cc2c1ONO2)N(C)C,3.516935936733353,-0.6259650975356634,0.0,H9C6NO
CN(C)c1cc2c(cc1N(C)C)ONO2,3.2956822780084623,-0.3865134938736445,0.0,H15C10N3O2
CN(C)c1ccc2c(c1c1ccccc1)ONO2,3.684115606929117,0.2691273849464779,0.0,H7C7NO
CN(C)N1Oc2ccc(cc2O1)OCCOCCOCCOC,4.145940176940348,-0.3808719617431051,0.0,H24C15(NO3)2
COCCOCCOc1cc2c(cc1C(=O)O)ONO2,4.335547164946183,0.5787773411517265,0.0,H15C12NO7
COCCOCCOc1cc(c2c(c1)ONO2)N(=O)=O,4.540574449625273,2.0403176610940137,0.0,H14C11N2O7
COCCOc1c2CCCCc2c(c2ccccc2)c(c1O)O,4.240553559973341,-0.2149625516052764,0.0,H22C19O4
CNc1ccc2c(c1)ON(C)O2,3.440919311402104,-0.5787453436700161,0.0,H5C4NO
CN(C)c1cc(cc2c1ONO2)OCCOC,3.810655448128818,-0.4898655216697078,0.0,H16C11(NO2)2
c1ccc(cc1)c1ccc(c2c1ONO2)C(=O)O,4.593720064645458,1.186710963278165,0.0,H9C13NO4
CC(C)(C)c1cc(cc2c1ONO2)C#N,4.699597072123288,0.6782847868067621,0.0,H12C11(NO)2
CN(C)c1cc(cc2c1ONO2)O,3.819758224749967,-0.5014743987143446,0.0,H10C8N2O3
COCCOc1cc(c2c(c1)ONO2)O,4.079081687066354,-0.4187484121270244,0.0,H11C9NO5
CC(C)(C)c1cc(c2c(c1)ONO2)OCCOC,4.327637142197636,-0.22370264673591,0.0,H19C13NO4
COCCOc1cc(c2ccccc2)c2c(c1)ONO2,4.103254658688092,0.4710774757200853,0.0,H15C15NO4
CC(C)(C)c1ccc(c2c1ONO2)N(C)C,3.78923555017318,-0.6198219534802774,0.0,H9C6NO
COCCOCCOc1cc(c2c(c1)ONO2)C(F)(F)F,4.354979257708328,0.5551697350070754,0.0,H14C12NO5F3
CN(C)N1Oc2ccc(cc2O1)C(Cl)(Cl)Cl,4.519497477683762,2.68361485482601,0.0,H9C9N2Cl3O2
Cc1c2CCCCc2c(c(c1O)O)OCCOCCOC,4.173345825589058,-0.4569074364029801,0.0,H24C16O5
CC(=O)c1c2CCCCc2c(c(c1O)O)OC,4.37414373195279,0.6059503460724955,0.0,H16C13O4
COCCOCCOCCOc1cc(c2c(c1)ONO2)O,4.068394894971425,-0.2214879421284421,0.0,H19C13NO7
CNc1c2CCCCc2c(c(c1O)O)N,3.254214061010862,-0.7222386634224676,0.0,H16C11(NO)2
COCCOCCOc1c2CCCCc2c(c(c1O)O)Cl,4.474181285296799,-0.4084940470260334,0.0,H21C15ClO5
C#Cc1c2CCCCc2c(C=C)c(c1O)O,4.333999803207552,0.6818121195843561,0.0,H7C7O
CCc1c2CCCCc2c(c(c1O)O)C(F)(F)F,4.410341792337567,0.022901918165735,0.0,H15C13O2F3
COCCOCCOCCOc1c2CCCCc2c(c(c1O)O)F,4.283496783633018,-0.2914401595393427,0.0,H25C17O6F
C=Cc1c2CCCCc2c(C)c(c1O)O,4.104292764821002,0.242831070941611,0.0,H16C13O2
CNc1c2CCCCc2c(c(c1O)O)N(=O)=O,4.120857811752648,1.8250718378236344,0.0,H14C11(NO2)2
CN(C)c1cc(cc2c1ONO2)c1ccccc1,3.9020137646090007,0.2984514225514432,0.0,H7C7NO
CN(C)c1c2CCCCc2c(C#N)c(c1O)O,4.456187156347005,0.4485773946704285,0.0,H16C13(NO)2
COCCOc1c2CCCCc2c(c(c1O)O)N(=O)=O,4.672487888781324,1.7092809993824631,0.0,H17C13NO6
CC(C)(C)c1cc(cc2c1[nH]s[nH]2)NC,3.1565333427657607,-0.4222348135393985,0.0,H17C11SN3
COCCOCCOCCOc1cc2c(c(c1)N(=O)=O)[nH]s[nH]2,3.5096807477762924,2.012134575046366,0.0,H19C13S(NO2)3
c1ccc(cc1)c1c2CCCCc2c(c(c1O)O)N,3.700514337886125,-0.1704370267820194,0.0,H17C16NO2
CN(C)c1c2CCCCc2c(c(c1O)O)OCCOC,3.676342247913999,-0.4594602397286507,0.0,H23C15NO4
C=Cc1cc(c2c(c1)ONO2)OCCOCCOCCOC,4.306346454771846,0.422272250574315,0.0,H21C15NO6
COCCOCCOc1c2CCCCc2c(c(c1O)O)F,4.428442179023113,-0.4242380149393283,0.0,H21C15O5F
Cc1c2CCCCc2c(c(c1O)O)NC,4.049423156245757,-0.7251914006177684,0.0,H17C12NO2
COCCOc1c2CCCCc2c(c(c1O)O)Cl,4.44155758167617,-0.3793638197807012,0.0,H17C13ClO4
C[C]([N]N1Oc2cccc(c3ccccc3)c2O1)O,4.376226045003568,0.3169633052217251,0.0,H12C14N2O3
C1CCc2c(C1)c(C#N)c(c(c2C(=O)O)O)O,4.701444768628425,1.3887943000350789,0.0,H11C12NO4
CC(=O)c1c2CCCCc2c(C#N)c(c1O)O,4.702517049534071,1.259295389552426,0.0,H13C13NO3
CC(=O)C1(CCc2cc(c(cc2C1)O)O)C(=O)C,4.2647183708992085,0.7904407748515951,0.0,H8C7O2
CNc1cccc2c1[nH]sn2N(C)C,3.46125211457329,1.6924289621470965,0.0,H14C9SN4
CC(C)(C)c1c2CCCCc2c(c(c1O)O)N,3.7088137936349086,-0.2957374275414621,0.0,H21C14NO2
CNc1c2CCCCc2c(c(c1O)O)Cl,4.315485234770312,-0.4597313549078534,0.0,H14C11NClO2
C#Cc1c2CCCCc2c(c(c1O)O)NC,3.606503365915705,0.275163528398116,0.0,H15C13NO2
COc1c2CCCCc2c(c(c1O)O)N(=O)=O,4.650972876153537,1.7092430150129077,0.0,H13C11NO5
Cc1c2CCCCc2c(c(c1O)O)OCCOC,4.17851218709402,-0.4723040292359655,0.0,H10C7O2
C=Cc1c2CCCCc2c(C#N)c(c1O)O,4.536708117424132,0.943484144741524,0.0,H13C13NO2
c1ccc(cc1)c1cc(cc2c1[nH]s[nH]2)C(=O)O,3.521344646234502,0.9079860672660288,0.0,H10C13S(NO)2
COCCOCCOc1cc(cc2c1[nH]s[nH]2)O,3.118494492127502,2.11609738139814,0.0,H16C11S(NO2)2
CNn1c2c(cccc2N(C)C)[nH]s1,3.659447475199704,1.581197391069145,0.0,H14C9SN4
C=Cc1c2CCCCc2c(C(=O)C)c(c1O)O,4.327523684330663,0.8841686776846474,0.0,H16C14O3
CC(=O)c1c2CCCCc2c(c(c1O)O)C(C)(C)C,4.2357833717229365,0.6465210091788323,0.0,H22C16O3
COCCOc1c2CCCCc2c(c(c1O)O)OCCOC,4.078783994527475,-0.4410039580747251,0.0,H12C8O3
COc1c2CCCCc2c(c(c1O)O)Cl,4.413545162709488,-0.3668254916614386,0.0,H13C11ClO3
C=Cc1c2CCCCc2c(c(c1O)O)OC,4.185582711442839,0.110477855004865,0.0,H16C13O3
CCc1c2CCCCc2c(c(c1O)O)OC,4.14871809460019,-0.4936587423202581,0.0,H18C13O3
CCc1c2CCCCc2c(c(c1O)O)OCCOCCOC,4.101101658617699,-0.3112901620173942,0.0,H26C17O5
Cc1c2CCCCc2c(c(c1O)O)F,4.319221423081762,-0.3264845661018625,0.0,H13C11O2F
CNc1c2CCCCc2c(c(c1O)O)F,3.5792767164690305,-0.3225907721775001,0.0,H14C11NO2F
COc1c2CCCCc2c(c(c1O)O)C(F)(F)F,4.495933992080245,0.0332440182151914,0.0,H13C12(OF)3
Cc1c2CCCCc2c(c(c1O)O)C(F)(F)F,4.401308674141182,0.0213175135701022,0.0,H13C12O2F3
CCc1c2CCCCc2c(c(c1O)O)F,4.318949018086277,-0.3213942576934641,0.0,H15C12O2F
CC(=O)c1c2CCCCc2c(c(c1O)O)O,4.399621737052803,0.6581242099251541,0.0,H7(C3O)2
c1ccc(cc1)c1c2CCCCc2c(C#N)c(c1O)O,4.567442175475298,0.6687592622889498,0.0,H15C17NO2
C#Cc1c2CCCCc2c(C(=O)C)c(c1O)O,4.45649734979961,0.9752469999017196,0.0,H14C14O3
CN(C)c1c2CCCCc2c(c(c1O)O)C(F)(F)F,4.366872869226063,0.0624163469125051,0.0,H16C13NO2F3
C=Cc1c2CCCCc2cc(c1O)O,4.171370529465639,0.1699622231222748,0.0,H7C6O
C#Cc1c2CCCCc2c(c(c1O)O)C(F)(F)F,4.590857198488811,0.7798811197877513,0.0,H11C13O2F3
COc1c2CCCCc2c(c2ccccc2)c(c1O)O,4.213681346963858,-0.2455492327957471,0.0,H18C17O3
c1ccc(cc1)c1c2CCCCc2cc(c1O)O,4.115533825589955,-0.0315515603237144,0.0,H8C8O
CNc1c2CCCCc2c(c(c1O)O)C(=O)O,4.321088153950404,0.4816905875464727,0.0,H15C12NO4
C1CCc2c(C1)c(c(c(c2F)O)O)C(=O)O,4.596039987505355,0.4651973106389051,0.0,H11C11O4F
COCCOc1c2CCCCc2c(c(c1O)O)F,4.270757534815493,-0.2901738233726063,0.0,H17C13O4F
CNc1ccc2c(c1)[nH]sn2N(C)C,3.198734487502952,1.539074650490511,0.0,H14C9SN4
C#Cc1c2CCCCc2c(c(c1O)O)N,3.798736489204748,0.1720483893092024,0.0,H13C12NO2
C=Cc1c2CCCCc2c(c(c1O)O)N,3.668322927920235,0.118965798568388,0.0,H15C12NO2
CCc1c2CCCCc2c(c(c1O)O)Cl,4.319314668331208,-0.2923002351948525,0.0,H15C12ClO2
CCc1c2CCCCc2c(c(c1O)O)N(=O)=O,4.559085842492641,2.034036465521785,0.0,H15C12NO4
CCc1c2CCCCc2c(C)c(c1O)O,4.038929194904631,-0.4111948938829299,0.0,H18C13O2
Cc1c2CCCCc2c(c(c1O)O)OC,4.062494446524942,-0.3535722633372642,0.0,H16(C4O)3
CC(C)(C)c1c2CCCCc2c(c(c1O)O)NC,3.5349810271633038,-0.3692887613637139,0.0,H23C15NO2
COc1c2CCCCc2c(c(c1O)O)C(=O)O,4.41622634933592,0.4376218330195116,0.0,H14C12O5
CCc1cc(c2c(c1)ONO2)OCCOCCOCCOC,4.33955042482703,-0.1834683435467012,0.0,H23C15NO6
c1ccc(cc1)c1c2CCCCc2c(c(c1O)O)C(=O)O,4.366177504083316,0.5868971881587641,0.0,H16C17O4
C#Cc1c2CCCCc2c(C#N)c(c1O)O,4.673892537697247,1.0059650848685124,0.0,H11C13NO2
C#Cc1c2CCCCc2c(c(c1O)O)OCCOCCOCCOC,4.387320882674976,0.1643319048067497,0.0,H26C19O6
CC(C)(C)c1c2CCCCc2c(C#N)c(c1O)O,4.48236567498825,0.5251928690900969,0.0,H19C15NO2
CN(C)c1cc2c(cc1N(C)C)[nH]s[nH]2,2.982049660944176,2.553490403608157,0.0,H16C10SN4
C1CCc2c(C1)c(c(c(c2N(=O)=O)O)O)N(=O)=O,5.02806146077055,2.495758527531143,0.0,H5C5NO3
COCCOCCOc1c2CCCCc2c(c(c1O)O)N,3.651308495865669,-0.4953842923627234,0.0,H23C15NO5
C=Cc1c2CCCCc2c(c(c1O)O)N(C)C,4.09840274649614,0.1509108502737945,0.0,H19C14NO2
CN(C)c1cc(cc2c1ONO2)OCCOCCOC,3.807603158087295,-0.4891265883765299,0.0,H20C13N2O5
CCc1c2CCCCc2c(c(c1O)O)OCCOCCOCCOC,4.130677654598548,-0.3270562527890432,0.0,H30C19O6
C#Cc1c2CCCCc2c(c(c1O)O)OC,4.374761726963333,0.2324730957749126,0.0,H14C13O3
CN(C)c1cc(cc2c1ONO2)C(Cl)(Cl)Cl,4.084789342859585,2.911940793035319,0.0,H9C9N2Cl3O2
CNc1c2CCCCc2c(c(c1O)O)C(Cl)(Cl)Cl,4.367015399738738,3.2767110127548222,0.0,H14C12NCl3O2
CN(C)c1c2CCCCc2c(c(c1O)O)Cl,4.280030159455782,-0.5285871984582626,0.0,H16C12NClO2
CN(C)c1c(ccc2c1ONO2)c1ccccc1,3.9285630301870698,0.1321715294157912,0.0,H7C7NO
Cc1c2CCCCc2c(c(c1O)O)C(=O)O,4.324276525405002,0.4140399987787533,0.0,H7(C3O)2
C#Cc1c2CCCCc2c(c(c1O)O)C(=O)O,4.513357215315045,0.9283920173598744,0.0,H12C13O4
CN(C)c1c2CCCCc2c(c(c1O)O)N(C)C,3.59172511368306,-0.5890485015064768,0.0,H11C7NO
Cc1c2CCCCc2c(C)c(c1O)O,4.03872685921815,-0.4060995949061179,0.0,H8C6O
COCCOCCOc1cc(cc2c1ONO2)C(=O)O,4.693015879207087,0.8953934469987872,0.0,H15C12NO7
CCc1c2CCCCc2cc(c1O)O,4.088957258825394,-0.4067087843199259,0.0,H8C6O
COCCOc1c2CCCCc2cc(c1O)O,4.156203328604169,-0.359821265125356,0.0,H18C13O4
CC(C)(C)c1c2CCCCc2c(c2ccccc2)c(c1O)O,4.097406262897129,-0.1442855372100893,0.0,H12C10O
CN(C)c1cc(c2c(c1)ONO2)C(F)(F)F,3.833966839310597,0.4287985418028257,0.0,H9C9N2O2F3
COc1c2CCCCc2c(C#N)c(c1O)O,4.5838177740275565,0.4052437720070885,0.0,H13C12NO3
CCc1c2CCCCc2c(c(c1O)O)C(=O)O,4.283631841893657,0.6587707796184987,0.0,H16C13O4
Cc1ccc2c(c1)n(C)s[nH]2,3.218925467657391,1.7149224253895228,0.0,H10C8SN2
C#Cc1c2CCCCc2c(C#C)c(c1O)O,4.459300889696896,0.7323032368964051,0.0,H6C7O
COc1c2CCCCc2c(c(c1O)O)N,3.601001188727969,-0.5154712951065448,0.0,H15C11NO3
Cc1c2CCCCc2c(c(c1O)O)N,3.6832110896444648,-0.2484166133166581,0.0,H15C11NO2
CNc1c2CCCCc2c(c(c1O)O)N(C)C,3.3475086796985125,-0.6181359415735641,0.0,H20C13(NO)2
C=Cc1c2CCCCc2c(CC)c(c1O)O,4.133687766990624,0.0931721686261881,0.0,H9C7O
C1CCc2c(C1)c(c(c(c2N(=O)=O)O)O)C(F)(F)F,4.875378549202287,2.338073096919834,0.0,H10C11NO4F3
C1CCc2c(C1)cc(c(c2C(=O)O)O)O,4.366843981626152,0.5324969106492063,0.0,H12C11O4
CCc1ccc2c(c1)[nH]sn2OCCOCCOCCOC,3.937472924358736,1.9241811183470416,0.0,H24C15S(NO2)2
CNc1ccc(c2c1ONO2)OCCOCCOCCOC,3.6377974451257615,-0.2432765951583859,0.0,H11C7NO3
C1CCc2c(C1)c(c(c(c2N)O)O)C(F)(F)F,4.298576293092628,-0.2297029228633618,0.0,H12C11NO2F3
C=Cc1c2CCCCc2c(c(c1O)O)N(=O)=O,4.595724109598086,2.1369619195007545,0.0,H13C12NO4
C=Cc1c2CCCCc2c(c2ccccc2)c(c1O)O,4.175680088848457,0.3495861816132675,0.0,H9C9O
C#Cc1c2CCCCc2c(c(c1O)O)C(C)(C)C,4.2472647307818985,0.2496999888695428,0.0,H10C8O
C1CCc2c(C1)c(c(c(c2C(=O)O)O)O)C(=O)O,4.541414851444278,1.2385151414360736,0.0,H2C2O
CCc1c2CCCCc2c(c(c1O)O)O,4.151852127638994,-0.1534007031681539,0.0,H16(C4O)3
C1CCc2c(C1)c(c(c(c2N(=O)=O)O)O)N,4.338145803126826,1.8072828010750528,0.0,H6C5NO2
C1CCc2c(C1)c(c(c(c2Cl)O)O)C(F)(F)F,4.630524859983416,1.1405490356351948,0.0,H10C11ClO2F3
C=Cc1c2CCCCc2c(c(c1O)O)NC,4.13769782155723,0.1170083449520462,0.0,H17C13NO2
C=Cc1c2CCCCc2c(c(c1O)O)OCCOCCOCCOC,4.163861153532343,0.1137529382518551,0.0,H28C19O6
C#Cc1c2CCCCc2c(c(c1O)O)OCCOCCOC,4.42790986721011,0.2161016251789989,0.0,H22C17O5
Cc1c2CCCCc2c(c2ccccc2)c(c1O)O,4.094456483578687,-0.0627699374621442,0.0,H18C17O2
C1CCc2c(C1)c(C#N)c(c(c2C(F)(F)F)O)O,4.811494372426386,1.039132006624277,0.0,H10C12NO2F3
C1CCc2c(C1)c(C#N)c(c(c2C(Br)(Br)Br)O)O,4.739201823592884,3.5404411546420307,0.0,H10C12Br3NO2
C#Cc1c2CCCCc2c(c(c1O)O)N(C)C,4.231494990964711,0.2784228535361763,0.0,H17C14NO2
CC(C)(C)c1c2CCCCc2c(c(c1O)O)O,4.118179778922785,-0.0467683430528267,0.0,H20C14O3
C=Cc1c2CCCCc2c(C=C)c(c1O)O,4.185903721417708,0.5842180777559407,0.0,H8C7O
Cc1cc(c2c(c1)ONO2)N(C)C,3.836850843270077,-0.6261267358771874,0.0,H12C9(NO)2
COCCOCCOCCOc1cc(c2c(c1)ONO2)N(=O)=O,4.631192115762678,2.1450927816782497,0.0,H18C13(NO4)2
CN(C)c1ccc2c(c1)ON(N(C)C)O2,3.55040575384337,-0.6795797089238476,0.0,H15C10N3O2
CN(C)c1c2CCCCc2c(c(c1O)O)OC,3.644529375503771,-0.4754593170859151,0.0,H19C13NO3
C1CCc2c(C1)c(c(c(c2F)O)O)C(F)(F)F,4.680079301602381,0.2610302485569264,0.0,H10C11(OF2)2
c1ccc(cc1)c1c2CCCCc2c(c(c1O)O)F,4.444770778072416,-0.1002887894450395,0.0,H15C16O2F
Cc1c2CCCCc2c(c(c1O)O)O,4.118602064224978,-0.4017502660921308,0.0,H14C11O3
CNc1c2CCCCc2c(c(c1O)O)O,3.323372824406397,-0.3625283243403827,0.0,H15C11NO3
CC(=O)c1c2CCCCc2c(c(c1O)O)N,3.667754046729533,0.5688831812927675,0.0,H15C12NO3
CC(C)(C)c1ccc2c(c1)n(OCCOC)s[nH]2,3.8600717620443903,1.574103611875762,0.0,H20C13S(NO)2
CC(C)(C)c1cccc2c1n(N(=O)=O)s[nH]2,2.939618947364216,3.713468551197002,0.0,H13C10SN3O2
CCc1c2CCCCc2c(C(=O)C)c(c1O)O,4.272913911821524,0.5776040080432723,0.0,H18C14O3
CN(C)c1c2CCCCc2c(c(c1O)O)N(=O)=O,4.517706130516308,1.7088099567241444,0.0,H8C6NO2
c1ccc(cc1)c1c2CCCCc2c(c2ccccc2)c(c1O)O,4.162497727139998,0.0467280915851007,0.0,H10C11O
Cc1c2CCCCc2c(c(c1O)O)N(C)C,4.021815482117381,-0.6049518165695189,0.0,H19C13NO2
CN(C)c1c2CCCCc2c(c(c1O)O)F,3.709694827500789,-0.305680565170769,0.0,H16C12NO2F
C=Cc1c2CCCCc2c(c(c1O)O)C(F)(F)F,4.426173674791789,0.6505650861341565,0.0,H13C13O2F3
C#Cc1c2CCCCc2c(CC)c(c1O)O,4.255585093038098,0.346949014839629,0.0,H8C7O
C=Cc1c2CCCCc2c(c(c1O)O)F,4.398017125285696,0.1524945881916211,0.0,H13C12O2F
CC(C)(C)c1c2CCCCc2c(c(c1O)O)N(=O)=O,4.474942787711916,2.0785874574699847,0.0,H19C14NO4
CCc1c2CCCCc2c(c(c1O)O)C(C)(C)C,4.019360179905197,-0.3547524700392386,0.0,H12C8O
CCc1c2CCCCc2c(c(c1O)O)N,3.683478849664971,-0.239350253696466,0.0,H17C12NO2
C1CCc2c(C1)c(c(c(c2O)O)O)N,3.555845679553022,-0.5142516128529677,0.0,H13C10NO3
COCCOCCOc1c2CCCCc2c(c(c1O)O)O,4.121064071323053,-0.439950287035026,0.0,H22(C5O2)3
C=Cc1c2CCCCc2c(c(c1O)O)O,4.182934741745703,0.1819957202038495,0.0,H14(C4O)3
Cc1c2CCCCc2c(c(c1O)O)C(C)(C)C,4.024179816673131,-0.3568710721941897,0.0,H22C15O2
Cc1c2CCCCc2c(C#N)c(c1O)O,4.490759331108711,0.4333794803111233,0.0,H13C12NO2
COCCOCCOc1c2CCCCc2c(c(c1O)O)C(=O)O,4.46964517209708,0.4215293008834124,0.0,H22C16O7
CCc1c2CCCCc2c(c(c1O)O)OCCOC,4.179206869235349,-0.465468480628624,0.0,H22C15O4
CN(C)c1c2CCCCc2c(c(c1O)O)N,3.454732857485942,-0.5583690431034483,0.0,H9C6NO
CC(C)(C)c1cccc2c1n(N(C)C)s[nH]2,3.4818115042122373,1.123267270782526,0.0,H19C12SN3
C#Cc1cc(c2c(c1)ONO2)OCCOCCOCCOC,4.493138087700208,0.4811699494181085,0.0,H19C15NO6
COc1c2CCCCc2c(c(c1O)O)OC,4.020892869260569,-0.4692886568758694,0.0,H4C3O
COCCOc1c2CCCCc2c(c(c1O)O)N,3.644154870673083,-0.4894048655973164,0.0,H19C13NO4
CN(C)c1c2CCCCc2c(c(c1O)O)OCCOCCOC,3.680783529443579,-0.4689158010500249,0.0,H27C17NO5
CC(C)(C)c1c2CCCCc2c(c(c1O)O)F,4.282813356117549,-0.277881706575863,0.0,H19C14O2F
CC(C)(C)c1c2CCCCc2c(c(c1O)O)N(C)C,3.604909042767394,-0.3255519693906534,0.0,H25C16NO2
C1CCc2c(C1)c(c(c(c2O)O)O)C(=O)O,4.415007995002815,0.5272191947202374,0.0,H12C11O5
CNc1c2CCCCc2c(C#N)c(c1O)O,3.893678000707587,0.2890312251380238,0.0,H7C6NO
c1ccc(cc1)c1c2CCCCc2c(c(c1O)O)Cl,4.358598515982157,0.0802584404169466,0.0,H15C16ClO2
C1CCc2c(C1)c(c(c(c2C(F)(F)F)O)O)C(=O)O,4.646118329897581,0.9244187090531342,0.0,H11C12O4F3
CN(C)c1c2CCCCc2c(c(c1O)O)C(=O)O,4.286694401512795,0.4937101904994052,0.0,H17C13NO4
COCCOCCOc1c2CCCCc2c(c(c1O)O)N(=O)=O,4.705025604429101,1.703915017891268,0.0,H21C15NO7
COCCOCCOCCOc1c2CCCCc2c(c(c1O)O)N,3.5767417093898985,-0.41340831410198,0.0,H27C17NO6
C=Cc1c2CCCCc2c(c(c1O)O)OCCOC,4.105372640422138,0.2860260380053661,0.0,H20C15O4
CCc1c2CCCCc2c(c2ccccc2)c(c1O)O,4.094036171105108,-0.0585622248530852,0.0,H10C9O
C=Cc1c2CCCCc2c(c(c1O)O)Cl,4.366353754937881,0.3996446433753591,0.0,H13C12ClO2
C1CCc2c(C1)c(c(c(c2C(F)(F)F)O)O)C(F)(F)F,4.7230451624142,0.7381828387093265,0.0,H5C6OF3
CC(C)(C)c1c2CCCCc2c(c(c1O)O)C(F)(F)F,4.381693070523033,0.2856542053319573,0.0,H19C15O2F3
COc1c2CCCCc2c(c(c1O)O)F,4.261853183610219,-0.2942629623852553,0.0,H13C11O3F
COc1c2CCCCc2cc(c1O)O,4.154351599374058,-0.3800362294008663,0.0,H14C11O3
C1CCc2c(C1)c(c(c(c2O)O)O)C(F)(F)F,4.487871544764493,-0.070998627290828,0.0,H11C11(OF)3
CN(C)c1ccc2c(c1)[nH]sn2N,3.2333220911183163,1.651115444588504,0.0,H12C8SN4
CNc1cc2c(cc1N(C)C)[nH]s[nH]2,3.0918079206217954,-0.29744571740448,0.0,H14C9SN4
CNn1c2ccccc2n(N(C)C)s1,3.488760178710072,1.730418282627943,0.0,H14C9SN4
CC(=O)c1ccc2c(c1OCCOCCOCCOC)ONO2,4.527680359873193,0.945110038528219,0.0,H21C15NO7
CC(=O)c1ccc2c(c1)ON(N(C)C)O2,4.488299636975716,0.951699503709824,0.0,H12C10N2O3
COCCOCCON1Oc2cccc(c2O1)C(=O)O,4.574710646314633,0.9589164416334826,0.0,H15C12NO7
COCCOCCOCCOc1cc(c2c(c1)[nH]s[nH]2)C(Cl)(Cl)Cl,3.191422696132213,2.9398280069959584,0.0,H19C14SN2Cl3O4
CNc1ccc2c(c1)n(c1ccccc1)s[nH]2,2.9003194041957614,2.36636150190825,0.0,H13C13SN3
CN(C)c1cc(cc2c1[nH]s[nH]2)C(F)(F)F,3.527942024478398,1.8474126016677477,0.0,H10C9S(NF)3
CN(C)c1cccc2c1[n]s[nH]2.N(=O)[O],3.0470992795177154,3.088012104000518,0.0,H10C8S(N2O)2
COCCOCCOCCOc1ccc2c(c1)ON(OCCOCCOC)O2,4.025252644534339,1.627378717706597,0.0,H29C18NO9
Cc1cccc2c1ON(OCCOCCOCCOC)O2,4.187827288702101,-0.4631423508566512,0.0,H21C14NO6
COCCON1Oc2cccc(c2O1)C(Cl)(Cl)Cl,4.45460547562252,2.636411517583474,0.0,H10C10NCl3O4
CC(=O)c1cc2c(cc1c1ccccc1)ONO2,4.507531464836211,1.019696915170789,0.0,H11C14NO3
COCCON1Oc2cccc(c2O1)C(=O)O,4.544387893774546,0.9849374444507704,0.0,H11C10NO6
CNc1ccc(c2ccccc2)c2c1[nH]s[nH]2,3.749452961406496,1.8881665198292468,0.0,H13C13SN3
CNc1cc(c2ccccc2)c2c(c1)[nH]s[nH]2,3.204993184697378,0.2647505073196954,0.0,H13C13SN3
CC(=O)c1cc2c(cc1OCCOC)ONO2,4.417522354082029,0.972414901656157,0.0,H13C11NO5
CC(=O)c1cc2c(cc1C(C)(C)C)ONO2,4.450697202509764,0.8606075159274043,0.0,H15C12NO3
COCCON1Oc2ccc(cc2O1)c1ccccc1,4.061945701761578,0.2948757351456152,0.0,H15C15NO4
COCCOCCOCCON1Oc2cccc(C#N)c2O1,4.500401652324944,0.8408338169007039,0.0,H9C7NO3