smiles,IE,EA,charge,formula_pretty
c1c(c(cc2c1ONO2)O)N,3.5601512932858896,-0.1717696770978363,0.0,H6C6N2O3
c1c(C#N)c2c(cc1F)ONO2,4.85527501826582,1.082470162703976,0.0,H3C7N2O2F
c1c(C#N)c(cc2c1ONO2)F,4.8598530587602,0.9193922793689128,0.0,H3C7N2O2F
C=Cc1cc(c2c(c1)ONO2)O,4.284140368235603,0.4481746444194869,0.0,H7C8NO3
c1cc2c(c(c1C(Cl)(Cl)Cl)C(=O)O)ONO2,4.856942659761989,3.0278701646326227,0.0,H4C8NCl3O4
COc1ccc2c(c1)ON(C(=O)O)O2,4.292054059083602,0.7150036513136002,0.0,H7C8NO5
c1cc2c(cc1C(Cl)(Cl)Cl)ONO2,4.660426938129239,2.780670734393061,0.0,H4C7NCl3O2
Cc1ccc2c(c1)ON(C(Br)(Br)Br)O2,4.534865324408747,2.501147208729526,0.0,H6C8Br3NO2
c1c(C#N)c2c(cc1Cl)ONO2,4.8615409564168655,1.1015812645360712,0.0,H3C7N2ClO2
c1cc2c(c(C#N)c1C(F)(F)F)ONO2,5.079296569978032,1.3201310994823872,0.0,H3C8N2O2F3
CCc1cc(cc2c1ONO2)Cl,4.459040620973246,0.0271135165618034,0.0,H8C8NClO2
c1c(cc2c(c1C(F)(F)F)ONO2)Cl,4.801197688176762,0.7516038496993134,0.0,H3C7NClO2F3
COc1cc(c2c(c1)ONO2)O,4.113309920817846,-0.2067616636471938,0.0,H7C7NO4
CN(C)c1cc2c(cc1F)ONO2,3.7401588098415233,-0.0186493262066504,0.0,H9C8N2O2F
CC(=O)c1cc(C#N)c2c(c1)ONO2,4.947314996237401,1.32035636075816,0.0,H6C9N2O3
c1c(c(cc2c1ONO2)N(=O)=O)C(Cl)(Cl)Cl,5.044110623400774,2.207458269347262,0.0,H3C7N2Cl3O4
C#Cc1cc(c2c(c1)ONO2)N(C)C,4.00391586102487,0.4433175511818263,0.0,H5C5NO
COCCOc1cc(cc2c1ONO2)F,4.506973049142834,0.043040943628148,0.0,H10C9NO4F
CCc1cc2c(cc1C#N)ONO2,4.683358621661318,0.6930606525980694,0.0,H8C9(NO)2
c1c(cc2c(c1C(=O)O)ONO2)Cl,4.711898214934626,1.2021495568820684,0.0,H4C7NClO4
C#Cc1cc2c(cc1N(C)C)ONO2,3.7711100827596966,0.4357051393322764,0.0,H5C5NO
c1c(c(cc2c1ONO2)N)F,3.868432740012941,-0.0125703874040481,0.0,H5C6N2O2F
c1c(cc2c(c1N(=O)=O)ONO2)Cl,4.942557692583796,2.274224387461436,0.0,H3C6N2ClO4
c1cc2c(cc1C(Br)(Br)Br)ON(C#N)O2,4.991925787902437,2.8538827994139866,0.0,H3C8Br3(NO)2
c1cc2c(cc1C(Cl)(Cl)Cl)ON(C(=O)O)O2,4.844414348147984,2.7108128561390914,0.0,H4C8NCl3O4
c1c(c(cc2c1ONO2)Cl)C(=O)O,4.762846657658519,1.0540986323809194,0.0,H4C7NClO4
COc1cc(cc2c1ONO2)F,4.486024558476492,0.0422657239592809,0.0,H6C7NO3F
CNc1cc(cc2c1ONO2)F,4.077823378252651,-0.1500521192559971,0.0,H7C7N2O2F
CNc1cc2c(cc1F)ONO2,3.7215267916304575,-0.0783356735431879,0.0,H7C7N2O2F
CN(C)c1cc(C#N)c2c(c1)ONO2,3.8909935405441503,0.7866486426588382,0.0,H9C9N3O2
Cc1cc(cc2c1ONO2)Cl,4.458140215324965,1.1863786932350195,0.0,H6C7NClO2
CC(=O)c1cc2c(cc1C#N)ONO2,4.970556149391632,1.559315623407747,0.0,H6C9N2O3
c1cc2c(cc1C(Cl)(Cl)Cl)ON(O)O2,4.950391079911787,2.7077898591465783,0.0,H4C7N(ClO)3
C#Cc1cc2c(cc1NC)ONO2,3.729494124277698,0.4051666440551345,0.0,H8C9(NO)2
c1c(cc2c(c1N)ONO2)F,4.227239130531961,-0.0773342429114563,0.0,H5C6N2O2F
CCc1cc(c2c(c1)ONO2)N(=O)=O,4.740838667273783,2.1150195657006408,0.0,H4C4NO2
c1c(C#N)c(cc2c1ONO2)C(=O)O,4.9901192187040575,1.4978300566559484,0.0,H2C4NO2
c1c(c(cc2c1ONO2)O)C(=O)O,4.488456581353239,0.8166922907526897,0.0,H5C7NO5
COc1cc(c2c(c1)ONO2)N,3.945464973106573,-0.6667178238480118,0.0,H8C7N2O3
COc1cc2c(cc1O)ONO2,3.992243630438316,-0.0658295174420344,0.0,H7C7NO4
C=Cc1cc(cc2c1ONO2)Cl,4.521195370079658,0.7392130344902399,0.0,H6C8NClO2
C=Cc1cc2c(cc1C#N)ONO2,4.65480187705325,0.9922593203533324,0.0,H6C9(NO)2
C#Cc1cc(c2c(c1)ONO2)N(=O)=O,4.87478008379694,2.2345971239898064,0.0,H2C4NO2
c1ccc(cc1)c1cc(cc2c1ONO2)F,4.487134366606915,0.5986554584211263,0.0,H8C12NO2F
c1c(C#N)c(cc2c1ONO2)O,4.572159266144444,0.7375125842278067,0.0,H4C7N2O3
COc1cc(cc2c1ONO2)Cl,4.513193658569071,0.0745345013325278,0.0,H6C7NClO3
CC(=O)c1cc(c2c(c1)ONO2)C(=O)O,4.798510392590833,1.2674214380400373,0.0,H7C9NO5
c1cc2c(cc1C(Br)(Br)Br)ON(C(=O)O)O2,4.809293747029733,2.8279870859056246,0.0,H4C8Br3NO4
c1c(cc2c(c1C(=O)O)ONO2)O,4.3786068070709,1.0444878083377265,0.0,H5C7NO5
c1c(cc2c(c1C(=O)O)ONO2)F,4.701108016868238,1.186148607377254,0.0,H4C7NO4F
c1cc2c(cc1C(F)(F)F)ON(O)O2,5.059425228335021,0.3516205264437304,0.0,H4C7N(OF)3
c1c(cc2c(c1O)ONO2)N,3.774266608728431,-0.4448341399496711,0.0,H6C6N2O3
C=Cc1cc(C)c2c(c1)ONO2,4.227279841482959,0.3971108145484323,0.0,H9C9NO2
CCc1cc2c(cc1O)ONO2,4.051906034475541,-0.2531034340485347,0.0,H9C8NO3
c1c(c(cc2c1ONO2)N)Cl,3.914787468476425,1.3018361024238403,0.0,H5C6N2ClO2
C=Cc1cc(c2c(c1)ONO2)OC,4.293559980605641,0.4535292760461744,0.0,H9C9NO3
c1c(cc2c(c1O)ONO2)F,4.485239888291835,-0.0361262374921351,0.0,H4C6NO3F
c1c(cc2c(c1N(=O)=O)ONO2)F,4.9422201734611,2.272898145428917,0.0,H3C6N2O4F
CCc1cc2c(cc1N)ONO2,3.68568142070726,-0.3105682358385819,0.0,H5C4NO
C=Cc1cc(c2c(c1)ONO2)F,4.482420149460813,0.6040755497539068,0.0,H6C8NO2F
CC(C)(C)c1cc2c(cc1OCCOC)ONO2,3.975948389813857,-0.2382099171139997,0.0,H19C13NO4
Cc1cc(cc2c1ONO2)F,4.431850592609044,0.0111245754411357,0.0,H6C7NO2F
c1c(cc2c(c1F)ONO2)Cl,4.72199002739726,0.4459362795256312,0.0,H3C6NClO2F
c1c(cc2c(c1O)ONO2)Cl,4.510525843613868,1.219390458399721,0.0,H4C6NClO3
c1ccc(cc1)c1cc(cc2c1ONO2)Cl,4.511315501653007,0.6092213884236117,0.0,H8C12NClO2
c1c(c(cc2c1ONO2)O)F,4.256034023726533,0.0908059918561776,0.0,H4C6NO3F
c1c(C#N)c2c(cc1N)ONO2,4.092213596149668,0.8245169160160004,0.0,H5C7N3O2
c1c(C#N)c(cc2c1ONO2)N,4.194016501632722,0.6242227631224524,0.0,H5C7N3O2
c1c(cc2c(c1C(F)(F)F)ONO2)F,4.793249811669375,0.7245756555945264,0.0,H3C7N(OF2)2
c1c(C#N)c(cc2c1ONO2)Cl,4.864915731291694,0.9505967678174784,0.0,H3C7N2ClO2
c1c(cc2c(c1C(=O)O)ONO2)C#N,4.952222000594338,1.3430605680056034,0.0,H2C4NO2
C#Cc1cc(cc2c1ONO2)Cl,4.640708187050768,0.7862626954352891,0.0,H4C8NClO2
C#Cc1cc(c2ccccc2)c2c(c1)ONO2,4.459445806643634,0.601175082907139,0.0,H9C14NO2
C=Cc1cc2c(cc1NC)ONO2,3.610433048933919,0.3760556715838903,0.0,H10C9(NO)2
CCc1cc(c2c(c1)ONO2)N,4.072715458641687,-0.5693610734510002,0.0,H5C4NO
c1c(cc2c(c1N)ONO2)Cl,4.260277873059385,1.183036044117762,0.0,H5C6N2ClO2
c1c(cc2c(c1C(=O)O)ONO2)N,3.954040825764969,0.9651316387113184,0.0,H6C7(NO2)2
CCc1cc(c2c(c1)ONO2)NC,3.9129963335559297,-0.5262533896260719,0.0,H12C9(NO)2
C=Cc1cc(c2c(c1)ONO2)N,4.0641133415516375,0.3457669632076432,0.0,H4C4NO
c1cc2c(c(c1C(F)(F)F)N)ONO2,4.42927816715528,0.2347381387131464,0.0,H5C7N2O2F3
c1cc2c(c(C#N)c1C(Br)(Br)Br)ONO2,5.007155313732801,3.1465740143845324,0.0,H3C8Br3(NO)2
COCCOCCOc1cc(C#N)sc1,4.722127844897477,0.8033338441724482,0.0,H13C10SNO3
C=Cc1cc(OCCOC)sc1,4.079721298805088,0.3040506355406251,0.0,H12C9SO2
CNc1cscc1OCCOCCOC,3.6274075428351353,-0.8254884716538071,0.0,H17C10SNO3
CCc1c(ccs1)C(C)(C)C,4.508245184062252,-0.4227009336595073,0.0,H16C10S
C#Cc1ccsc1OCCOCCOC,4.361651818287646,0.2988823801220861,0.0,H14C11SO3
C#Cc1cscc1OCCOCCOCCOC,4.6074814873223655,0.3391251270018984,0.0,H18C13SO4
COCCOc1cscc1c1ccccc1,4.404913766165555,0.1346475911974267,0.0,H14C13SO2
CCc1cscc1C(C)(C)C,4.677024619680742,-0.5726222217475878,0.0,H16C10S
COCCOCCOc1cc(C(Br)(Br)Br)sc1,4.550172965996898,3.231869433127577,0.0,H13C10S(BrO)3
C(#N)c1cscc1Cl,5.523185583546001,0.7640861876730924,0.0,H2C5SNCl
COCCOCCOCCOc1cscc1Cl,4.710733818051812,-0.012326641436084,0.0,H17C11SClO4
COCCOCCOCCOn1c2ccccc2n(C(F)(F)F)s1,4.223293754710175,2.659099112288095,0.0,H19C14SN2O4F3
COCCOCCOc1cc(cc2c1[nH]s[nH]2)N(=O)=O,3.3690150445487235,1.9935050630025215,0.0,H15C11SN3O5
COCCOCCOc1cccc2c1[nH]sn2C#N,3.405734521316481,3.338073350039485,0.0,H15C12S(NO)3
c1c(csc1C#N)F,5.546694921214657,1.045415547819721,0.0,H2C5SNF
CN(C)n1c2ccccc2n(OCCOC)s1,3.852182583215472,1.5845620895684989,0.0,H17C11SN3O2
C#Cc1ccc2c(c1)[nH]sn2C(C)(C)C,3.1771477647103894,2.5385431360315125,0.0,H14C12SN2
COCCOc1cccc2c1[nH]sn2C#N,3.733798491722701,3.3004888805313386,0.0,H11C10SN3O2
C=Cn1c2ccccc2n(OCCOCCOCCOC)s1,3.791400172225258,1.8301127249156708,0.0,H22C15S(NO2)2
COCCOCCOc1ccc2c(c1OCCOC)[nH]s[nH]2,3.1065607438154985,1.8706281189748557,0.0,H22C14SN2O5
COCCOCCOc1ccsc1c1ccccc1,4.334034146698832,0.4021676774442313,0.0,H18C15SO3
C=Cc1ccc(c2c1[nH]s[nH]2)OCCOCCOC,3.208389625274868,0.3367488384916215,0.0,H18C13SN2O3
COCCOCCOCCOc1ccc(C(=O)O)s1,4.699976469566172,0.8659407321916661,0.0,H18C12SO6
COCCOCCOCCOc1ccsc1C#N,4.942158683888556,0.6866344094611123,0.0,H17C12SNO4
COCCOCCOCCOc1cc(cs1)Cl,4.401143443895853,0.1086208522116067,0.0,H17C11SClO4
CCc1c(ccs1)OCCOCCOCCOC,4.147658262898039,-0.4118636952756787,0.0,H22C13SO4
COCCOc1cc(c2c(c1)[nH]s[nH]2)Cl,3.4866843501236877,1.479278151485778,0.0,H11C9SN2ClO2
C=Cc1c(ccc2c1[nH]s[nH]2)c1ccccc1,3.456244882521424,0.5527508280225448,0.0,H12C14SN2
CN(C)c1ccc(OCCOCCOCCOC)s1,3.15179644220334,-0.5978854555563884,0.0,H23C13SNO4
COCCOCCOc1c(ccs1)OC,3.861919191874768,-0.1595188100349331,0.0,H16C10SO4
COCCOCCOCCOc1ccsc1N,3.489365822480613,-0.5167974500567651,0.0,H19C11SNO4
COCCOCCOCCOc1cscc1OC,4.383555667985638,-0.388399033245514,0.0,H20C12SO5
CC(C)(C)n1c2cc(ccc2[nH]s1)NC,2.877813192420581,2.458139238327567,0.0,H17C11SN3
C#Cc1cccc2c1[nH]sn2OCCOCCOCCOC,3.958472104388056,3.819916891604953,0.0,H20C15S(NO2)2
c1cc(Cl)sc1C#N,5.358045082751778,1.4358050623101009,0.0,H2C5SNCl
CNn1c2cccc(c2[nH]s1)OCCOC,3.275949020536791,2.106686827702652,0.0,H15C10SN3O2
COCCOCCOc1ccc(c2c1[nH]s[nH]2)N(=O)=O,3.1858927225126537,1.88105778797908,0.0,H15C11SN3O5
c1c(csc1F)O,4.514837947257183,-0.3845047930539294,0.0,H3C4SOF
COCCOc1c(ccc2c1[nH]s[nH]2)C(Cl)(Cl)Cl,3.665190377892577,2.8971494739031187,0.0,H11C10SN2Cl3O2
CCc1ccc(CC)c2c1[nH]s[nH]2,3.380269134131231,1.7402757615323936,0.0,H14C10SN2
COCCOCCOc1cccc2c1n(OCCOC)s[nH]2,3.780869342177175,1.4333026544642054,0.0,H22C14SN2O5
CC(C)(C)n1c2ccccc2n(N(C)C)s1,3.0874262810044457,1.5176009447473915,0.0,H19C12SN3
C#Cc1c(ccs1)OCCOCCOCCOC,4.415961174404947,0.5559697823424359,0.0,H18C13SO4
COCCOCCOCCOc1cscc1N,3.809597341628978,-0.6603368795025744,0.0,H19C11SNO4
c1cc(F)sc1C#N,5.41639621373688,1.009932444770675,0.0,H2C5SNF
COCCOCCOc1cc(N)sc1,3.5304717307823013,-0.5645191750467347,0.0,H15C9SNO3
COCCOCCOc1cc(c2c(c1)[nH]s[nH]2)F,3.540099744257168,2.013220578651817,0.0,H15C11SN2O3F
CC(C)(C)c1c(ccs1)OCCOCCOC,4.113066452404018,-0.5646685954729036,0.0,H22C13SO3
COCCOCCOCCOc1cscc1C#N,4.84652190793131,0.6176990406471305,0.0,H17C12SNO4
COCCOCCOn1c2cccc(c2[nH]s1)Cl,4.014089438250812,1.7261223207766307,0.0,H15C11SN2ClO3
COCCOCCOCCOc1cscc1OCCOC,4.361015246054739,-0.3603127353693707,0.0,H24C14SO6
COCCOCCOc1cc(C(=O)O)sc1,4.704326040567684,1.0339019160615863,0.0,H14C10SO5
COc1ccc(c2ccccc2)c2c1[nH]s[nH]2,3.272959830968466,0.2429032273736084,0.0,H12C13SN2O
Cc1ccc2c(c1OCCOCCOCCOC)[nH]s[nH]2,3.4491642001608853,2.1680139398536995,0.0,H22C14S(NO2)2
c1ccc(cc1)c1ccc(c2ccccc2)c2c1[nH]s[nH]2,3.396711305338249,0.5555002063789289,0.0,H14C18SN2
COCCOCCOc1cccc2c1[nH]s[nH]2,3.149802272271336,1.7445400466109278,0.0,H16C11SN2O3
COCCOCCOCCOc1cccc2c1[nH]sn2OC,3.744932388619054,2.5450452962046257,0.0,H22C14SN2O5
c1ccc(cc1)c1ccc(c2c1[nH]s[nH]2)N(=O)=O,3.527531097207975,1.9851855742323097,0.0,H9C12SN3O2
COCCOc1c(ccc2c1[nH]s[nH]2)c1ccccc1,3.4542679319507443,2.1333753012819217,0.0,H16C15S(NO)2
COCCOCCOCCOn1c2ccc(cc2[nH]s1)N,3.72971968488273,1.5640690848173109,0.0,H21C13SN3O4
COCCOCCOCCOc1cc(N(=O)=O)sc1,4.999337455950444,2.1803475676148083,0.0,H17C11SNO6
Cc1ccc(c2c1[nH]s[nH]2)OCCOCCOC,3.1204671378560307,1.716546964058216,0.0,H18C12SN2O3
COCCOCCOCCOc1ccsc1C(Cl)(Cl)Cl,4.760249358275905,3.012316194764572,0.0,H17C12SCl3O4
s1c(c([c][c]1)C#N)C#N,6.412050923144852,3.7962130061474455,0.0,C6SN2
COCCOCCOCCOn1c2ccccc2n(N(=O)=O)s1,4.487180079014797,3.5984981196466834,0.0,H19C13S(NO2)3
CN(C)c1ccc(c2ccccc2)s1,3.308797939172655,0.2933269230430597,0.0,H13C12SN
CC(C)(C)c1cc(cc2c1[nH]s[nH]2)C(F)(F)F,3.5511913954775083,2.205658720669453,0.0,H13C11SN2F3
COCCOCCOCCOc1c(ccs1)OC,3.867180344228109,-0.1895125987124628,0.0,H20C12SO5
COCCOCCOn1c2cccc(c2[nH]s1)O,3.907217100933485,2.0282533226287343,0.0,H16C11S(NO2)2
COCCOCCOn1c2ccccc2n(C(Br)(Br)Br)s1,4.199185437371488,4.137592965207295,0.0,H15C12SBr3N2O3
CC(C)(C)c1ccsc1OCCOCCOCCOC,3.957338412832178,-0.4241508949693524,0.0,H26C15SO4
COCCOCCOc1ccc2c(c1)[nH]s[nH]2,3.3089643258987054,-0.2568062884078244,0.0,H16C11SN2O3
COCCOCCOCCOc1cccc2c1[nH]sn2C(=O)O,3.5741340560794925,2.592165083611326,0.0,H20C14S(NO3)2
COCCOCCOCCOc1cc2c(cc1C(Cl)(Cl)Cl)[nH]s[nH]2,3.5318353639828275,2.9644487555429806,0.0,H19C14SN2Cl3O4
COCCOCCOc1cc2c(cc1N(=O)=O)[nH]s[nH]2,3.668173834020854,1.97505785907706,0.0,H15C11SN3O5
COCCOCCOCCOc1ccc(O)s1,3.81753034984431,-0.4294583066861377,0.0,H18C11SO5
COCCOCCOc1ccc2c(c1)[nH]sn2C(Cl)(Cl)Cl,3.7599128649686464,2.609166035160888,0.0,H15C12SN2(ClO)3
COCCOCCOc1cccc2c1[nH]sn2C(Cl)(Cl)Cl,3.5269094994087937,3.9662966616248014,0.0,H15C12SN2(ClO)3
C#Cc1cccc2c1[nH]sn2c1ccccc1,3.268109752827149,2.3638365140664974,0.0,H10C14SN2
COCCOCCOc1cccc2c1[nH]sn2c1ccccc1,3.0211968258096022,2.214375264347473,0.0,H20C17SN2O3
COCCOCCOc1cc(C#N)cs1,4.617678626889392,0.5907059873257823,0.0,H13C10SNO3
COCCOCCOCCOn1c2ccccc2n(c2ccccc2)s1,3.69304587153747,1.751054332185595,0.0,H24C19S(NO2)2
COCCOCCOCCOc1cc(cs1)C(=O)O,4.50418001555372,0.7198336420202396,0.0,H18C12SO6
COCCOCCOc1ccc2c(c1)[nH]sn2OCCOC,3.901785986273899,1.5758982679486508,0.0,H22C14SN2O5
Cc1ccc2c(c1)[nH]sn2OCCOCCOC,3.803462592289725,1.6606890461749573,0.0,H18C12SN2O3
Cc1ccc(c2c1[nH]s[nH]2)OCCOCCOCCOC,3.2814148732519244,1.8007135104213376,0.0,H22C14S(NO2)2
COCCOCCOc1cc(c2c(c1)[nH]s[nH]2)Cl,3.5000071470727563,1.223025651657372,0.0,H15C11SN2ClO3
COCCOCCOCCOc1ccc2c(c1)[nH]sn2OCCOC,3.696963578827854,1.8616982761464895,0.0,H26C16S(NO3)2
COCCOCCOn1c2ccccc2n(N(=O)=O)s1,4.471979998628376,3.654307484249876,0.0,H15C11SN3O5
Cc1cc2c(cc1OCCOC)[nH]s[nH]2,3.2944772109891347,2.261362600345456,0.0,H14C10S(NO)2
CC(=O)c1cc(C(=O)C)c2c(c1)[nH]s[nH]2,3.4859905224235264,1.0927694211510244,0.0,H10C10S(NO)2
COCCOCCOn1c2cccc(c2[nH]s1)F,3.991932500919211,1.808831822710636,0.0,H15C11SN2O3F
COCCOc1ccc2c(c1O)[nH]s[nH]2,3.340212676384545,2.4410525763792976,0.0,H12C9SN2O3
COCCOCCOCCOc1cc(C(F)(F)F)sc1,4.739002437652379,0.5302112197110547,0.0,H17C12SO4F3
COCCOc1ccc2c(c1)[nH]sn2c1ccccc1,3.177254702729988,2.25046511595574,0.0,H16C15S(NO)2
CC(=O)n1c2cc(ccc2[nH]s1)OCCOC,3.61623525067771,2.8549887571185537,0.0,H14C11SN2O3
CC(C)(C)c1ccc2c(c1)[nH]sn2C(C)(C)C,2.842911553115846,2.0520659828740464,0.0,H22C14SN2
CN(C)n1c2ccc(cc2[nH]s1)OCCOC,3.3894371554866667,1.559410188410402,0.0,H17C11SN3O2
CC(=O)c1c(ccc2c1[nH]s[nH]2)OCCOC,3.2127556754872786,0.8605678743893805,0.0,H14C11SN2O3
CC(C)(C)c1c(ccc2c1[nH]s[nH]2)C#N,3.5204048602732656,2.037707879857044,0.0,H13C11SN3
CN(C)c1cc(cs1)c1ccccc1,3.471599270496517,0.1161108264364885,0.0,H13C12SN
CN(C)n1c2ccc(cc2[nH]s1)OCCOCCOCCOC,3.391355672336067,1.5827210544171977,0.0,H25C15SN3O4
COCCOCCOCCOc1cc(cs1)F,4.424344454813399,0.0655863425214193,0.0,H17C11SO4F
CC(=O)n1c2cc(ccc2[nH]s1)N(C)C,3.340758381638443,2.806808161125082,0.0,H13C10SN3O
CNc1c(ccc2c1[nH]s[nH]2)OCCOC,3.227424050875561,2.4910522669866624,0.0,H15C10SN3O2
CCn1c2ccccc2n(C(=O)C)s1,3.3936130280540966,2.4804377864289564,0.0,H12C10SN2O
CC(=O)c1ccc2c(c1N(C)C)[nH]s[nH]2,3.4437024726990786,0.7718070314418584,0.0,H13C10SN3O
CN(C)c1c(ccs1)c1ccccc1,3.5286318575541373,0.1546932870529418,0.0,H13C12SN
COCCOc1cc2c(cc1C(F)(F)F)[nH]s[nH]2,3.510264374811959,2.372172049386427,0.0,H11C10SN2O2F3
CNc1cc(cs1)OCCOCCOCCOC,3.3798588109508274,-0.4512402874737744,0.0,H21C12SNO4
CCc1ccc2c(c1N(C)C)[nH]s[nH]2,3.1657682279343136,2.5017950220113563,0.0,H15C10SN3
CC(C)(C)C1=c2c(C=C[CH]1)ns[nH]2.[Cl],4.386384310384164,3.6551091969173286,0.0,H13C10SN2Cl
CC(C)(C)c1ccc2c(c1)n(C(C)(C)C)s[nH]2,2.876948743899993,2.0206031032917964,0.0,H22C14SN2
COCCOc1ccc2c(c1)[nH]sn2O,3.862116085283197,1.7717621436000628,0.0,H12C9SN2O3
COCCOc1ccc2c(c1)[nH]sn2C(=O)O,3.657382974719076,3.0458182355883765,0.0,H12C10S(NO2)2
CC(C)(C)c1cc(OCCOCCOC)sc1,4.122186053818586,-0.7247320289192429,0.0,H22C13SO3
COCCOCCOCCOn1c2ccc(cc2[nH]s1)F,3.952599248282786,1.69045441433409,0.0,H19C13SN2O4F
CC(=O)c1ccc(c2c1[nH]s[nH]2)OCCOC,3.050299428062863,2.2350039232893324,0.0,H14C11SN2O3
C#Cc1cc2c(cc1c1ccccc1)[nH]s[nH]2,3.476240669986146,0.564931495149358,0.0,H10C14SN2
COCCOn1c2ccc(cc2[nH]s1)N,3.7373983265148127,1.5639404892550377,0.0,H13C9SN3O2
CCc1cccc2c1[nH]sn2C(=O)C,3.561861302905163,2.3220806101540803,0.0,H12C10SN2O
COCCOCCOCCOc1ccc(c2c1[nH]s[nH]2)C(F)(F)F,3.4667654293822125,1.8427959373235356,0.0,H19C14SN2O4F3
CC(=O)c1cc2c(c(c1)OCCOC)[nH]s[nH]2,3.3065854441389093,1.0513201922600277,0.0,H14C11SN2O3
CN(C)n1c2cccc(c2[nH]s1)OCCOCCOC,3.198518080805661,1.7694567652230035,0.0,H21C13S(NO)3
COCCOn1c2ccc(cc2[nH]s1)C(=O)O,3.997812796607468,3.973690059928777,0.0,H12C10S(NO2)2
C=Cn1c2cc(ccc2[nH]s1)OCCOCCOC,3.323605585146288,2.809516365939635,0.0,H18C13SN2O3
CCn1c2ccc(cc2[nH]s1)OCCOC,3.1965734845631237,1.9099587021752087,0.0,H16C11S(NO)2
COCCOCCOCCOc1ccc(c2ccccc2)s1,3.8738783964377945,0.4228366663825,0.0,H22C17SO4
COCCOCCOCCOc1c(ccc2c1[nH]s[nH]2)OC,3.428694409436139,2.1920605336432346,0.0,H22C14SN2O5
COCCOc1ccc(c2c1[nH]s[nH]2)OC,3.0698351036713576,1.8374824656399145,0.0,H14C10SN2O3
COCCOc1c(ccc2c1[nH]s[nH]2)Cl,3.5520818335877267,2.2077556489617565,0.0,H11C9SN2ClO2
C#Cc1ccc2c(c1)[nH]sn2OCCOCCOC,3.945467185390589,3.834096972315456,0.0,H16C13SN2O3
CCc1ccc2c(c1)n(C(=O)C)s[nH]2,3.682433891708206,2.780100764748204,0.0,H12C10SN2O
COCCOCCOCCOc1cc(C(Br)(Br)Br)sc1,4.580597959802253,3.316360415419331,0.0,H17C12SBr3O4
CC(C)(C)c1c(ccc2c1[nH]s[nH]2)NC,3.1468145249105874,-0.2910709473275346,0.0,H17C11SN3
CC(C)(C)c1ccc2c(c1NC)[nH]s[nH]2,3.348053467930731,1.8211493930335565,0.0,H17C11SN3
C#Cn1c2ccccc2n(OCCOCCOCCOC)s1,4.072119376951013,2.4306443608234987,0.0,H20C15S(NO2)2
COCCOCCOc1ccc(c2c1[nH]s[nH]2)F,3.2769589111790998,1.974414554746181,0.0,H15C11SN2O3F
CC(C)(C)c1ccc2c(c1N(C)C)[nH]s[nH]2,3.363497484767868,-0.1513106811347824,0.0,H19C12SN3
CC(=O)n1c2cccc(c3ccccc3)c2[nH]s1,3.7296985117005534,2.477729804749833,0.0,H12C14SN2O
C#Cn1c2c(cccc2OCCOC)[nH]s1,3.661532746123703,2.4253682830327308,0.0,H12C11S(NO)2
COCCOCCOCCOc1ccc2c(c1)n(N)s[nH]2,3.3145635280030548,2.0993761384030223,0.0,H21C13SN3O4
CCc1cc2c(cc1C(=O)C)[nH]s[nH]2,3.486134293770738,0.895571948230645,0.0,H12C10SN2O
CCc1ccc2c(c1)n(CC)s[nH]2,3.1876548637097586,1.911605709277501,0.0,H14C10SN2
C#Cc1c(ccc2c1[nH]s[nH]2)C(C)(C)C,3.329224001202965,0.4521029831936176,0.0,H14C12SN2
CCn1c2cc(C)ccc2[nH]s1,3.1822049786329445,1.906037283251499,0.0,H12C9SN2
CC(=O)c1cc2c(cc1c1ccccc1)[nH]s[nH]2,3.520873617178586,1.0075649618571334,0.0,H12C14SN2O
COCCOc1cc(c2c(c1)[nH]s[nH]2)N,3.399721126571967,2.2563993446106907,0.0,H13C9SN3O2
CC(=O)c1cccc2c1n(C(C)(C)C)s[nH]2,3.520945090598252,0.9560088236336016,0.0,H16C12SN2O
COCCOc1cc2c(cc1O)[nH]s[nH]2,3.3790258269524203,-0.1492190182492776,0.0,H12C9SN2O3
COCCOc1ccc2c(c1)n(N(=O)=O)s[nH]2,3.905629833703279,3.4933279577977374,0.0,H11C9SN3O4
COCCOCCOc1cccc2c1[nH]sn2F,4.44003892250621,3.8469870728746174,0.0,H15C11SN2O3F
CN(C)c1c(ccc2c1[nH]s[nH]2)OC,3.180257272129529,2.2845743924204727,0.0,H13C9SN3O
CC(=O)c1cc2c(c(c1)N(C)C)[nH]s[nH]2,3.492499409252196,0.945339343421074,0.0,H13C10SN3O
CC(C)(C)c1cccc2c1[nH]sn2C(C)(C)C,3.076713469386596,1.7713339370944596,0.0,H22C14SN2
CC(=O)c1cc(c2ccccc2)c2c(c1)[nH]s[nH]2,3.509603347714437,1.0077440073160688,0.0,H12C14SN2O
COCCOCCOc1cc2c(c(c1)OCCOC)[nH]s[nH]2,3.191303126595449,1.8648008963660687,0.0,H22C14SN2O5
COCCOCCOn1c2ccccc2n(OC)s1,3.995604369674402,2.2112508505393635,0.0,H18C12S(NO2)2
Cn1c2ccccc2n(c2ccccc2)s1,3.0983606558707835,2.0588021255767672,0.0,H12C13SN2
CN(C)c1cccc2c1[nH]sn2OC,3.7700461802392966,1.5251321278934484,0.0,H13C9SN3O
CC(C)(C)c1cc2c(cc1C(C)(C)C)[nH]s[nH]2,3.2386895746800293,2.513279850516119,0.0,H22C14SN2
CCc1cc(cc2c1[nH]s[nH]2)OCCOCCOCCOC,3.0825979284287315,2.072046012226201,0.0,H24C15S(NO2)2
Cc1ccc2c(c1)[nH]sn2C(C)(C)C,2.859687384863355,2.043755748699914,0.0,H16C11SN2
Cc1cccc2c1[nH]sn2OCCOCCOCCOC,3.8771869932257688,1.5316079882628402,0.0,H22C14S(NO2)2
CCn1c2cc(ccc2[nH]s1)OCCOC,3.206245482522354,1.8801031745366343,0.0,H16C11S(NO)2
CN(C)c1cccc2c1[nH]sn2OCCOCCOC,3.770931369269965,1.621453545006807,0.0,H21C13S(NO)3
CC(C)(C)n1c2cccc(c2[nH]s1)C(=O)O,3.0096782715132577,2.049133847421763,0.0,H14C11S(NO)2
COCCOCCOCCOc1cc2c(cc1Cl)[nH]s[nH]2,3.5611000535587665,1.3009270598864533,0.0,H19C13SN2ClO4
CCc1ccc2c(c1)n(OCCOCCOC)s[nH]2,3.842411337174417,1.5833119605027606,0.0,H20C13SN2O3
COCCOc1ccc2c(c1c1ccccc1)[nH]s[nH]2,3.40228933426406,0.2422550767019857,0.0,H16C15S(NO)2