smiles,IE,EA,charge,formula_pretty
CN1C=C[C]([C]2C=CN(C)C=C2OCCOC)C(=C1)C(F)(F)F,2.062489219105919,-0.0444263544799468,0.0,H19C16N2O2F3
CC(=O)c1cc(=c2ccn(cc2)CC(C)(C)C)ccn1C,2.147117964437348,0.8266238689808234,0.0,H24C18N2O
CC1=CN(C)C=C[C]1[C]1C=CN(C)C=C1OCCOCCOCCOC,1.719959543702862,-0.3569449619848455,0.0,H15C10NO2
Cn1ccc(=c2ccn(cc2)CO)c(c1)N(=O)=O,2.578467640336021,1.377443003229564,0.0,H13C12(NO)3
CC(=O)c1cc(=c2ccn(cc2)COCCOC)ccn1C,2.2496719558126643,0.9170536160323536,0.0,H22C17N2O3
Cc1c(=c2ccn(C)cc2)ccn(C)c1C(F)(F)F,2.104418753414939,0.4516246696563031,0.0,H15C14N2F3
CC(=O)c1c(c(=c2ccn(C)cc2)ccn1C)N(C)C,1.9426371768655373,0.6653891623296659,0.0,H21C16N3O
CN1C=C[C]([C]2C=CN(C)C=C2OCCOCCOCCOC)C(=C1)C(F)(F)F,1.9773586686511408,0.0119959193267278,0.0,H27C20N2O4F3
C#CC1=C[C](C=CN1C)[C]1C=CN(C)C=C1NC,1.7991201696037025,0.4270575248097885,0.0,H17(C5N)3
CN1C=C[C]([C]2C=CN(C=C2)CO)C(=C1)N,1.8413450236199425,-0.2916331562832055,0.0,H15C12N3O
CC(=O)C1=CN(C)C=C[C]1[C]1C=CN(C)C=C1C#N,2.4523126742293244,0.5962228069634876,0.0,H15C15N3O
Cn1ccc(=c2ccn(cc2)CO)cc1N(=O)=O,2.617905232303747,1.7384368407016155,0.0,H13C12(NO)3
CN1C=C[C]([C]2C=CN(C)C=C2O)C(=C1)Cl,1.8920129414560507,0.0757542679435574,0.0,H13C12N2ClO
CC(=O)Cn1ccc(=c2ccn(C)cc2C(Cl)(Cl)Cl)cc1,2.2717007574625314,3.296837335941382,0.0,H15C15N2Cl3O
C#CC1=CN(C)C=C[C]1[C]1C=CN(C)C=C1C=C,2.042118720005965,0.2505521677790967,0.0,H8C8N
C#CC1=CN(C)C=C[C@@H]1[C@H]1C=CN(C)C=C1C(=O)O,2.234347475868708,0.4571990685777565,0.0,H14C15(NO)2
CN(C)C1=CN(C)C=C[C]1[C]1C=CN(C)C=C1OCCOCCOC,1.7917525513672443,-0.2202043321762175,0.0,H29C19(NO)3
CCC1=CN(C)C=C[C]1[C]1C=CN(C)C(=C1)OCCOC,1.7123416433219971,-0.3153350172164209,0.0,H24C17(NO)2
CC1=CN(C)C=C[C]1[C]1C=CN(C)C=C1Cl,1.8547125179771684,0.0800612177532458,0.0,H15C13N2Cl
CN(C)C1=CN(C)C=C[C]1[C]1C=CN(C)C=C1OCCOC,1.7483118029245817,-0.2214609375536382,0.0,H25C17N3O2
CCC1=CN(C)C=C[C]1[C]1C=CN(C)C=C1c1ccccc1,1.7452244292486283,-0.1577539613157568,0.0,H11C10N
CN(C)C1=CN(C)C=C[C]1[C]1C=CN(C)C=C1O,1.6912807832464751,-0.2029066785966278,0.0,H19C14N3O
C#CC1=CN(C)C=C[C]1[C]1C=CN(C)C=C1O,1.924775483000849,0.2570967368934362,0.0,H14C14N2O
CN(C)C1=CN(C)C=C[C]1[C]1C=CN(C)C=C1C#N,2.0651415589578392,0.2796687920505065,0.0,H18C15N4
CN1C=C[C](C(=C1)C#N)[C]1C=CN(C)C=C1Cl,2.2677292369386124,0.3786981064891734,0.0,H12C13N3Cl
CCc1cn(ccc1=c1ccn(C)cc1)CC(=O)C,1.880753542938328,0.3227212204415992,0.0,H20C16N2O
CC(=O)Cn1ccc(=c2ccn(C)cc2)cc1c1ccccc1,2.038689320999401,0.2744555181248871,0.0,H20C20N2O
COCCOc1cc(F)sc1,4.384174944656115,0.347543983587093,0.0,H9C7SO2F
c1c(csc1C(Br)(Br)Br)C(Cl)(Cl)Cl,5.513739429204724,2.968272667867132,0.0,H2C6S(BrCl)3
CC(C)(C)c1ccc(Cl)s1,4.614323308158054,1.22080771707042,0.0,H11C8SCl
c1ccc(cc1)c1c(ccs1)N,3.748603890032973,0.2212569524686842,0.0,H9C10SN
C=Cc1cscc1Cl,4.741335133528628,0.4740714844207105,0.0,H5C6SCl
c1ccc(cc1)c1c(ccs1)C#N,4.813042232135194,1.0739162016012416,0.0,H7C11SN
Cc1ccc(C(C)(C)C)s1,4.39877443170335,-0.4296144319981976,0.0,H14C9S
c1ccc(cc1)c1ccc(F)s1,4.336578032854595,0.5617057107643633,0.0,H7C10SF
CC(C)(C)c1ccc(F)s1,4.6442329048164535,0.179939078364987,0.0,H11C8SF
c1csc(c1Cl)N(=O)=O,5.901604344960651,2.246962665261526,0.0,H2C4SNClO2
COc1cc(cs1)C(Cl)(Cl)Cl,4.547977004550921,2.6504964999490768,0.0,H5C6SCl3O
c1ccc(cc1)c1c(ccs1)C(F)(F)F,4.80488875729643,0.7960233671270545,0.0,H7C11SF3
COCCOc1cscc1C(Cl)(Cl)Cl,4.723615872209484,2.7415385058498942,0.0,H9C8SCl3O2
c1csc(c1Cl)C(Br)(Br)Br,5.318380354635883,2.912246191810118,0.0,H2C5SBr3Cl
C#Cc1cc(cs1)OCCOC,4.374478415642079,0.6553801296227904,0.0,H10C9SO2
c1csc(c1C(Cl)(Cl)Cl)C(Br)(Br)Br,5.512344247160945,3.1731572805088946,0.0,H2C6S(BrCl)3
c1cc(C(F)(F)F)sc1C(Br)(Br)Br,5.587235526612494,3.041299227502896,0.0,H2C6S(BrF)3
c1csc(c1C(F)(F)F)C(Cl)(Cl)Cl,5.6921580458380046,2.9545461819230696,0.0,H2C6S(ClF)3
c1csc(c1C(=O)O)C(Br)(Br)Br,5.475679443473927,2.888846241193824,0.0,H3C6SBr3O2
c1csc(c1Cl)C(F)(F)F,5.570848523771565,1.319313400120882,0.0,H2C5SClF3
COCCOc1ccsc1O,3.917853715238016,-0.3928657084383302,0.0,H10C7SO3
CC(C)(C)c1cc(cs1)C(F)(F)F,5.095369305834174,0.1655905782477931,0.0,H11C9SF3
c1csc(c1O)C(F)(F)F,5.038459542801865,0.3744207272880886,0.0,H3C5SOF3
c1cc(C(Cl)(Cl)Cl)sc1C(Br)(Br)Br,5.417334960214793,2.985576362430584,0.0,H2C6S(BrCl)3
C#Cc1ccc(C(C)(C)C)s1,4.517857839427597,0.5495224367819902,0.0,H12C10S
c1cc(C(F)(F)F)sc1C(Cl)(Cl)Cl,5.745751361589646,2.897661592143413,0.0,H2C6S(ClF)3
COc1c(ccs1)C(=O)O,4.680307760214054,0.7061511377956777,0.0,H6C6SO3
COCCOc1ccsc1OC,3.8273604377660377,-0.0740653529741393,0.0,H12C8SO3
COc1c(ccs1)C(Cl)(Cl)Cl,4.541555675795825,2.9094177154271166,0.0,H5C6SCl3O
C#Cc1ccsc1C(C)(C)C,4.671086671221564,0.2099954886049091,0.0,H12C10S
COc1c(ccs1)c1ccccc1,3.9778037245538154,0.2144064158324909,0.0,H10C11SO
CC(C)(C)c1c(ccs1)O,4.233601388817624,-0.4422746779986481,0.0,H12C8SO
c1csc(c1C#N)C(F)(F)F,5.986205952370801,1.3028311737522018,0.0,H2C6SNF3
c1ccc(cc1)c1ccc(C(F)(F)F)s1,4.718561697807308,0.9549380311778806,0.0,H7C11SF3
COCCOc1ccsc1C(=O)O,4.8967253111237365,0.9468847568219644,0.0,H10C8SO4
CC(C)(C)c1ccc(C(F)(F)F)s1,5.149156442841194,0.3897738363317331,0.0,H11C9SF3
c1csc(c1O)C(Br)(Br)Br,4.854145944491028,3.445438624295639,0.0,H3C5SBr3O
c1csc(c1C(Cl)(Cl)Cl)N(=O)=O,5.994427471983363,2.469583938219876,0.0,H2C5SNCl3O2
c1csc(c1N)C(F)(F)F,4.385178247431758,0.2861696760133783,0.0,H4C5SNF3
CCc1c(ccs1)OCCOC,4.1384712588856924,-0.4014034869309397,0.0,H14C9SO2
COCCOc1ccsc1C(Br)(Br)Br,4.714964426320512,3.102556147868745,0.0,H9C8SBr3O2
C#Cc1cc(C(C)(C)C)sc1,4.704970449672691,0.2603089046984679,0.0,H12C10S
C#Cc1c(ccs1)N(C)C,3.660376662324416,0.5152266861456156,0.0,H9C8SN
C=Cc1ccsc1C(C)(C)C,4.389642508971155,0.0372917714281357,0.0,H14C10S
c1c(csc1C(Br)(Br)Br)C(F)(F)F,5.553851460741134,2.9368506707192865,0.0,H2C6S(BrF)3
c1c(csc1N(=O)=O)C(Br)(Br)Br,5.893901093362365,2.814330155024072,0.0,H2C5SBr3NO2
CN1C=C[C]([C]2C=CN(C)C(=C2)OCCOCCOCCOC)C(=C1)OCCOCCOC,1.6050985236885027,-0.2403986702178371,0.0,H38C24N2O7
c1csc(c1C(=O)O)C(F)(F)F,5.798347140671103,1.321909279065585,0.0,H3C6SO2F3
c1c(csc1C(Cl)(Cl)Cl)C(F)(F)F,5.711009869433473,2.827980359304638,0.0,H2C6S(ClF)3
C=Cc1ccsc1C#C,4.557356284208799,0.8313063903093281,0.0,H6C8S
C=Cc1ccsc1OC,3.9957920166612895,0.1864909020419873,0.0,H8C7SO
c1ccc(cc1)c1ccc(C(Br)(Br)Br)s1,4.582141977292485,3.186526442988543,0.0,H7C11SBr3
C=Cc1cscc1C(Br)(Br)Br,4.807556079752976,2.9923745960055386,0.0,H5C7SBr3
CCc1ccsc1C(F)(F)F,5.345025129461282,0.3987153038666293,0.0,H7C7SF3
C#Cc1cscc1N(=O)=O,5.394444714185374,2.0593398334072845,0.0,H3C6SNO2
c1c(c(cs1)N(=O)=O)F,5.740216402844089,2.089203233297303,0.0,H2C4SNO2F
c1c(c(cs1)F)C(Br)(Br)Br,5.457148110080743,2.7200795133190696,0.0,H2C5SBr3F
COCCOc1cscc1F,4.653823948896024,-0.0647810873073466,0.0,H9C7SO2F
CN(C)c1c(ccs1)F,3.596121490985388,-0.0424600816571909,0.0,H8C6SNF
CCc1cscc1F,5.020125236178137,-0.1945233709651801,0.0,H7C6SF
C#Cc1cscc1F,5.16302659404173,0.4620304851610854,0.0,H3C6SF
c1csc(C#N)c1C(Br)(Br)Br,5.667483435064787,3.029809030145407,0.0,H2C6SBr3N
COCCOc1cscc1O,4.455560758456704,-0.4453959271326311,0.0,H10C7SO3
c1ccc(cc1)c1cscc1C(F)(F)F,4.870505178108578,0.2579584615537897,0.0,H7C11SF3
C#Cc1cscc1C#N,5.321185693215375,0.6880345902696718,0.0,H3C7SN
c1c(c(cs1)N(=O)=O)N,4.364654542796052,1.9640714968605608,0.0,H4C4S(NO)2
CC(C)(C)c1cscc1C(Cl)(Cl)Cl,5.147755826650245,3.0078140903584427,0.0,H11C9SCl3
c1c(csc1O)C(Cl)(Cl)Cl,4.711965691008663,3.278116393653909,0.0,H3C5SCl3O
COc1ccc(C(Br)(Br)Br)s1,4.507643513171933,3.3067573575186544,0.0,H5C6SBr3O
C=Cc1ccsc1N,3.616218428605498,0.0962561816973903,0.0,H7C6SN
C#Cc1ccsc1F,4.935092178669583,0.639891290201922,0.0,H3C6SF
C#Cc1ccsc1NC,3.658527697769023,0.1221689049867564,0.0,H7C7SN
c1c(c(cs1)Cl)C(Br)(Br)Br,5.367978919495362,2.712692104215966,0.0,H2C5SBr3Cl
COc1ccsc1O,3.873989462421014,-0.2059952958356006,0.0,H6C5SO2
CNc1ccsc1C#N,4.239227500254492,0.5378838122538583,0.0,H6C6SN2
c1csc(c1C(Br)(Br)Br)C(=O)O,5.605615959264105,2.889610592648387,0.0,H3C6SBr3O2
c1csc(c1C(F)(F)F)O,4.822300040168193,0.3656096757527849,0.0,H3C5SOF3
CNc1ccsc1O,3.336695711144421,-0.1825343590557167,0.0,H7C5SNO
C=Cc1cc(N)sc1,3.651671327015356,0.2223537481128006,0.0,H7C6SN
c1c(csc1C#N)N(=O)=O,6.099895688299148,2.1952917439753947,0.0,H2C5S(NO)2
C(#N)c1cscc1C(F)(F)F,5.959322868414892,0.8104079821947381,0.0,H2C6SNF3
CC(C)(C)c1cc(N)sc1,3.640899613635702,-0.6191985896533878,0.0,H13C8SN
C#Cc1cscc1Cl,5.136439101913856,0.4488560256337224,0.0,H3C6SCl
CN(C)c1c(ccs1)OC,3.172116064184229,-0.3597730519926698,0.0,H11C7SNO
COCCOc1ccsc1,4.354129323737288,-0.3168798129212518,0.0,H10C7SO2
COCCOc1cscc1Cl,4.707590318169968,0.006195810137433,0.0,H9C7SClO2
CCc1ccsc1C(Cl)(Cl)Cl,5.163100189945544,2.945607465467765,0.0,H7C7SCl3
c1ccc(cc1)c1ccsc1O,4.12622963552858,0.2420506974354794,0.0,H8C10SO
c1csc(c1C(Br)(Br)Br)C(Cl)(Cl)Cl,5.585511560284067,3.4077772499527783,0.0,H2C6S(BrCl)3
Cc1cc(cs1)OCCOC,4.183094148754753,-0.3585103703138883,0.0,H12C8SO2
COCCOc1cscc1C#N,4.828204915911192,0.6180010625190335,0.0,H9C8SNO2
C#Cc1cc(OCCOC)sc1,4.31361495826568,0.3225187242074754,0.0,H10C9SO2
CN(C)c1cscc1O,3.653217428863718,-0.4246658159885554,0.0,H9C6SNO
COc1cscc1C#N,4.832441205916984,0.6371275578363567,0.0,H5C6SNO
COCCOc1cc(N)sc1,3.4941714535540087,-0.5361467576280119,0.0,H11C7SNO2
COc1cscc1c1ccccc1,4.376767429091705,0.1967347880396119,0.0,H10C11SO
C(#N)c1cscc1N,4.270816757672582,0.5452542631988764,0.0,H4C5SN2
C=Cc1cc(C(Br)(Br)Br)sc1,4.716829244245309,3.133407652983442,0.0,H5C7SBr3
C=Cc1cc(NC)sc1,3.4916905617516023,0.18487929695184,0.0,H9C7SN
COc1cscc1C(Br)(Br)Br,4.760763560881605,3.0180516769411043,0.0,H5C6SBr3O
c1c(csc1C(Br)(Br)Br)F,5.274964624340646,3.028724504134152,0.0,H2C5SBr3F
c1c(c(cs1)O)C(=O)O,4.836219117443397,0.7216746390782647,0.0,H4C5SO3
CC(C)(C)c1c(ccs1)N(=O)=O,5.352342012070585,1.844973669818137,0.0,H11C8SNO2
C=Cc1ccsc1NC,3.450998848807649,0.093474408187467,0.0,H9C7SN
CCc1ccsc1OC,4.015487129215762,-0.2301261578417324,0.0,H10C7SO
CCc1ccsc1F,4.753668456525338,0.1477067560859724,0.0,H7C6SF
C=Cc1ccsc1N(=O)=O,5.313100630509871,2.241050015234214,0.0,H5C6SNO2
CC(C)(C)c1cscc1N(=O)=O,5.422784839849191,1.8966527490825684,0.0,H11C8SNO2
COCCOc1c(ccs1)F,4.365629923967935,0.0522894943474967,0.0,H9C7SO2F
CCc1cc(C(F)(F)F)sc1,5.251210931166133,0.4333956329915964,0.0,H7C7SF3
C#Cc1cc(NC)sc1,3.6850884792125727,0.204424346882297,0.0,H7C7SN
COc1ccsc1c1ccccc1,4.018398088771937,0.3534701631193457,0.0,H10C11SO
COc1cscc1Cl,4.7023750904714685,1.2476976446865593,0.0,H5C5SClO
CCc1ccsc1N(=O)=O,5.698390018731152,2.021736228850932,0.0,H7C6SNO2
COc1cscc1F,4.649486408046505,-0.056218889314914,0.0,H5C5SOF
CC(C)(C)c1ccsc1N(=O)=O,5.596694190045673,2.046924212301383,0.0,H11C8SNO2
c1c(c(cs1)C(F)(F)F)C(Br)(Br)Br,5.662568607390858,2.867685847356916,0.0,H2C6S(BrF)3
CN(C)c1cscc1C#N,3.9953078336198815,0.5552995333069703,0.0,H8C7SN2
CCc1cc(C#N)sc1,5.262266491930495,0.7755731631601521,0.0,H7C7SN
COc1cscc1N,3.835890314073913,-0.6874242202669847,0.0,H7C5SNO
c1c(csc1N)C(Br)(Br)Br,4.042767964705126,3.2315800672746264,0.0,H4C5SBr3N
c1csc(c1F)N(=O)=O,5.999336500882782,2.188850259744504,0.0,H2C4SNO2F
Cc1ccsc1C(Br)(Br)Br,5.074745868792524,3.1987069277907723,0.0,H5C6SBr3
C#Cc1cscc1C(F)(F)F,5.248160135031503,0.4700599822113873,0.0,H3C7SF3
c1c(c(cs1)Cl)C(=O)O,5.338437043899466,0.8451636977421004,0.0,H3C5SClO2
COc1ccsc1N,3.337943576230464,-0.5185993797371338,0.0,H7C5SNO
C=Cc1cc(CC)sc1,4.373787943104253,0.2698692244099221,0.0,H10C8S
C=Cc1cscc1N(C)C,3.720707391553879,0.2643198844503787,0.0,H11C8SN
C#Cc1cc(C(Br)(Br)Br)sc1,5.07685209789779,2.9728213010472246,0.0,H3C7SBr3
C#Cc1cc(N(C)C)sc1,3.6178653486291297,0.2153349906999211,0.0,H9C8SN
Cc1cc(cs1)OC,4.166926129515195,-0.3144507397613778,0.0,H8C6SO
c1c(csc1C(F)(F)F)C(Br)(Br)Br,5.682923566136742,2.7685839492129163,0.0,H2C6S(BrF)3
C#Cc1ccsc1O,4.425181343650911,0.3007848449757149,0.0,H4C6SO
C#Cc1ccsc1N,3.828430775783636,0.1474601882924617,0.0,H5C6SN
C=Cc1cscc1OC,4.370098169254197,0.3427366762894963,0.0,H8C7SO
COc1ccsc1C#N,4.932776753857615,0.6926807571886457,0.0,H5C6SNO
Cc1ccsc1C(F)(F)F,5.326089228119235,0.4316990222592722,0.0,H5C6SF3
CC(=O)c1cc(C#N)sc1,5.761005723239213,1.1888980347190228,0.0,H5C7SNO
c1c(csc1N)Cl,3.907199182243494,1.0476973284836275,0.0,H4C4SNCl
CNc1cscc1F,3.9249940748792143,-0.3021568950447544,0.0,H6C5SNF
c1ccc(cc1)c1cc(O)sc1,4.188190416452562,0.1837411400025304,0.0,H8C10SO
c1c(csc1C#N)C(Br)(Br)Br,5.643719469598727,2.7818231963843574,0.0,H2C6SBr3N
c1c(c(cs1)Cl)C(F)(F)F,5.453099273874249,0.416339156626782,0.0,H2C5SClF3
c1csc(c1F)C(Br)(Br)Br,5.324829273065552,2.681229575618636,0.0,H2C5SBr3F
C#Cc1cscc1c1ccccc1,4.701981426098064,0.2335245218760975,0.0,H8C12S
c1c(csc1N(=O)=O)Cl,5.708073154304293,2.327533591882093,0.0,H2C4SNClO2
C=Cc1cscc1C#N,4.915347149553417,0.6045126380500734,0.0,H5C7SN
CCc1cc(C(=O)O)sc1,5.196048745792359,0.960604695750226,0.0,H8C7SO2
C=Cc1cc(c2ccccc2)sc1,4.24046275558212,0.6196153397737363,0.0,H10C12S
CNc1cscc1C#N,4.109907583535096,0.530900995637785,0.0,H6C6SN2
c1ccc(cc1)c1cscc1Cl,4.772989200298616,0.2561680531813182,0.0,H7C10SCl
C=Cc1ccsc1C(Cl)(Cl)Cl,4.926864239876158,3.0547043796701474,0.0,H5C7SCl3
CCc1ccsc1C#C,4.6326548745943,0.5474582900475071,0.0,H8C8S
C#Cc1cscc1C(Br)(Br)Br,5.1729880422004495,2.719898220174946,0.0,H3C7SBr3
c1c(c(cs1)N(=O)=O)C(Cl)(Cl)Cl,5.976413998477801,2.0960934686168917,0.0,H2C5SNCl3O2
CC(=O)c1cscc1C(=O)O,5.461550441248255,0.8947936836062582,0.0,H6C7SO3
CN(C)c1cscc1Cl,3.887344763357396,1.2606465109580314,0.0,H8C6SNCl
c1c(csc1O)N(=O)=O,4.996369064044847,1.9934370753631807,0.0,H3C4SNO3
CC(C)(C)c1cc(Cl)sc1,4.743293490560609,1.2243778778480192,0.0,H11C8SCl
c1ccc(cc1)c1cc(C(Br)(Br)Br)sc1,4.658802176325116,3.1098836102115457,0.0,H7C11SBr3
c1c(c(cs1)C(Br)(Br)Br)C(=O)O,5.6328918803134,3.1090465908288025,0.0,H3C6SBr3O2
c1c(csc1C(=O)O)C(F)(F)F,5.875350703850563,1.2531974816971343,0.0,H3C6SO2F3
c1c(c(cs1)N(=O)=O)Cl,5.614866235185763,2.0719313788300497,0.0,H2C4SNClO2
C=Cc1ccsc1c1ccccc1,4.342265881472121,0.5986371288359806,0.0,H10C12S
C#Cc1ccsc1C(Br)(Br)Br,5.161480127566028,3.1684352346870583,0.0,H3C7SBr3
CCc1cscc1OCCOC,4.394694144558889,-0.603052913682768,0.0,H14C9SO2
C#Cc1ccsc1N(C)C,3.615066785694217,0.2536568642222847,0.0,H9C8SN
c1c(c(cs1)F)C(F)(F)F,5.539091674161318,0.4314906973428152,0.0,H2C5SF4
COc1ccsc1C(Br)(Br)Br,4.710597997903824,3.192008627980249,0.0,H5C6SBr3O
c1csc(c1C(F)(F)F)C(Br)(Br)Br,5.5738272396789394,3.008446406712756,0.0,H2C6S(BrF)3
CC(C)(C)c1ccsc1F,4.722582549840444,0.1302253059380747,0.0,H11C8SF
CNc1c(ccs1)OC,3.156596445967444,-0.4338759551232214,0.0,H9C6SNO
COCCOc1cc(C(=O)O)sc1,4.690071694554353,1.0488500326333452,0.0,H10C8SO4
c1csc(c1N(=O)=O)O,5.112077247905836,2.2538721199904104,0.0,H3C4SNO3
C#Cc1cc(C(=O)O)sc1,5.20588746517169,1.1633931311640482,0.0,H4C7SO2
CNc1cc(C#N)sc1,4.066285996400984,0.7431260233221111,0.0,H6C6SN2
C#Cc1cc(N(=O)=O)sc1,5.453282787444186,2.283235178716132,0.0,H3C6SNO2
c1c(csc1C(F)(F)F)N(=O)=O,6.253623854432226,2.1553298757185986,0.0,H2C5SNO2F3
c1c(c(cs1)O)N(=O)=O,5.131680141080869,1.9412892936212305,0.0,H3C4SNO3
C=Cc1ccsc1C(=O)O,4.965019432792905,1.2314085320664163,0.0,H6C7SO2
c1c(csc1C(F)(F)F)Cl,5.476938209425134,0.7163532488790225,0.0,H2C5SClF3
COCCOc1cscc1C(Br)(Br)Br,4.76602592691197,3.0202332244312857,0.0,H9C8SBr3O2
c1c(csc1O)C(F)(F)F,4.77271376667486,0.1725795555190417,0.0,H3C5SOF3
C#Cc1c(ccs1)Cl,4.883897619869094,0.7716075475051185,0.0,H3C6SCl
CC(=O)c1ccsc1C(=O)O,5.559173381565051,1.6612313772217022,0.0,H6C7SO3
c1csc(c1F)N,3.826082196619245,-0.3757918031864391,0.0,H4C4SNF
c1c(c(cs1)N(=O)=O)C(Br)(Br)Br,6.033264345425414,3.083954494819045,0.0,H2C5SBr3NO2
c1csc(c1N(=O)=O)C(=O)O,5.883942167679924,2.3371299830047065,0.0,H3C5SNO4
c1c(c(cs1)N)Cl,4.077254578694555,1.2370874335952975,0.0,H4C4SNCl
C=Cc1cc(OC)sc1,4.073991111990472,0.3090053224055737,0.0,H8C7SO
CC(=O)c1cscc1C#N,5.805259618578566,1.053277659486048,0.0,H5C7SNO
C#Cc1cc(C(F)(F)F)sc1,5.25593406548578,0.7133465705534037,0.0,H3C7SF3
c1c(csc1N(=O)=O)F,5.830245448663481,2.3313336180995976,0.0,H2C4SNO2F
c1c(c(cs1)O)C(Br)(Br)Br,4.859524845925625,3.274458859866718,0.0,H3C5SBr3O
c1csc(c1C#N)C(=O)O,5.898679232757422,1.6708742453862215,0.0,H3C6SNO2
CCc1ccsc1C(=O)O,5.283514835720416,0.8862226664074115,0.0,H8C7SO2
C#Cc1cscc1OCCOC,4.606985480944422,0.346600896884047,0.0,H10C9SO2
c1ccc(cc1)c1cscc1N(=O)=O,4.998226545759826,1.9386683040116623,0.0,H7C10SNO2
CNc1cc(cs1)OCCOC,3.3600310102461663,-0.4024633295142847,0.0,H13C8SNO2
C#Cc1cc(C(Cl)(Cl)Cl)sc1,5.141198626007826,2.846366756669886,0.0,H3C7SCl3
CCc1cscc1N,3.8219243434228702,-0.6390310326190956,0.0,H9C6SN
c1csc(c1Cl)C(=O)O,5.509128558152588,1.1493812004860957,0.0,H3C5SClO2
C=Cc1cscc1CC,4.4902005779928,0.2740324001548289,0.0,H10C8S
CCc1cscc1C(Br)(Br)Br,5.122000551194651,2.876900655939244,0.0,H7C7SBr3
C#Cc1ccsc1c1ccccc1,4.481346948808641,0.7668695720982215,0.0,H8C12S
c1csc(c1F)C(=O)O,5.585177162307081,1.0595992666836538,0.0,H3C5SO2F
C=Cc1cscc1C(C)(C)C,4.492094302555051,0.224516560601478,0.0,H14C10S
C=Cc1cc(C#C)sc1,4.529913769577979,0.6883342229790288,0.0,H6C8S
COc1cc(cs1)F,4.3827399877060085,0.0761991604609648,0.0,H5C5SOF
c1ccc(cc1)c1cc(cs1)Cl,4.50160513563751,0.6520386533244165,0.0,H7C10SCl
CCc1cscc1C#N,5.28665676006276,0.5259379630384502,0.0,H7C7SN
CNc1cc(O)sc1,3.5303430699183083,-0.3973659733623207,0.0,H7C5SNO
CC(C)(C)c1cc(C(F)(F)F)sc1,5.249088241858408,0.3917400411351992,0.0,H11C9SF3
CCc1cc(c2ccccc2)sc1,4.266440682787652,0.4361441596352962,0.0,H12C12S
CCc1ccsc1c1ccccc1,4.368153540357161,0.3111324934303412,0.0,H12C12S
c1csc(c1N(=O)=O)C(Br)(Br)Br,5.774327837157761,3.0162116840016098,0.0,H2C5SBr3NO2
CCc1ccsc1O,4.200766122126515,-0.3878814400726695,0.0,H8C6SO
c1ccc(cc1)c1ccsc1C#N,4.99412248402732,1.0669173493202837,0.0,H7C11SN
c1csc(c1C(Br)(Br)Br)O,4.643067498365417,3.3828095100121574,0.0,H3C5SBr3O
c1csc(c1C(Br)(Br)Br)C(F)(F)F,5.729006765782833,3.2186487006780227,0.0,H2C6S(BrF)3
COCCOc1cscc1C(=O)O,4.781262416113895,0.718038474371133,0.0,H10C8SO4
CCc1cc(cs1)Cl,4.8229814866987,-0.1050107672839657,0.0,H7C6SCl
C=Cc1cc(cs1)Cl,4.582678319105616,0.6855985945308931,0.0,H5C6SCl
CN(C)c1cc(C#N)sc1,3.9133301356028825,0.740223512898956,0.0,H8C7SN2
CC(C)(C)c1cscc1OC,4.393987750639644,-0.8193246496652136,0.0,H14C9SO
C(#N)c1cscc1N(=O)=O,6.133386754774255,2.243170024217397,0.0,H2C5S(NO)2
c1ccc(cc1)c1cc(C(=O)O)sc1,4.737759429795551,1.046869364979648,0.0,H8C11SO2
CN(C)c1cscc1C(=O)O,3.739973505760281,0.6816119417577284,0.0,H9C7SNO2
c1c(csc1N)C(=O)O,4.008720398198056,0.6348904011225387,0.0,H5C5SNO2
c1cc(Cl)sc1C(=O)O,5.316003796729637,1.1484439560677857,0.0,H3C5SClO2
C#Cc1cc(cs1)N(C)C,3.6779131910348952,0.5518005684003584,0.0,H9C8SN
CCc1ccc(O)s1,4.108473070123727,-0.1520453068609639,0.0,H8C6SO
C=Cc1cc(cs1)C(=O)O,4.717446705906331,0.889038908580551,0.0,H6C7SO2
c1c(csc1F)N,3.9077038472874848,-0.6016697672042937,0.0,H4C4SNF
c1ccc(cc1)c1cc(cs1)N,3.760811311394354,0.4488209746501526,0.0,H9C10SN
c1c(csc1F)C(=O)O,5.294322941602877,0.8273408889450367,0.0,H3C5SO2F
CCc1ccc(C(=O)O)s1,5.126818462723895,0.937510582023242,0.0,H8C7SO2
c1cc(N)sc1C(Br)(Br)Br,4.055019166431157,3.3670136309752707,0.0,H4C5SBr3N
CNc1ccc(C(=O)O)s1,3.9982623558877095,0.6647280808079814,0.0,H7C6SNO2
CC(C)(C)c1ccc(C#N)s1,5.136357114007842,0.7438094181830821,0.0,H11C9SN
c1cc(C(F)(F)F)sc1C#N,5.930344837158918,1.4153446268624976,0.0,H2C6SNF3
CNc1cc(N(C)C)sc1,3.1542267943055777,-0.7024778517064987,0.0,H12C7SN2
COCCOc1cc(C(Cl)(Cl)Cl)sc1,4.624946466430265,2.9972636898761267,0.0,H9C8SCl3O2
c1c(csc1C(F)(F)F)C(=O)O,5.884953353588207,1.0118470540706768,0.0,H3C6SO2F3
c1c(csc1N(=O)=O)C(=O)O,6.157749242805584,2.307096974561864,0.0,H3C5SNO4
CN(C)c1cscc1C(Cl)(Cl)Cl,4.065661949572677,2.797670338959142,0.0,H8C7SNCl3
c1csc(c1O)O,3.981591878445761,-0.3361157524253939,0.0,H4C4SO2
CNc1cc(C(F)(F)F)sc1,3.998703653783741,0.3887837773378124,0.0,H6C6SNF3
C=Cc1cc(cs1)C(C)(C)C,4.348766098753549,0.4150245311371692,0.0,H14C10S
COCCOc1cc(N(=O)=O)sc1,4.955727022757491,2.1891521101875697,0.0,H9C7SNO4
CNc1cc(cs1)C(Cl)(Cl)Cl,3.864434280215937,3.029198134595936,0.0,H6C6SNCl3
CN(C)c1ccsc1N(=O)=O,4.475296745227388,1.7693195572624971,0.0,H8C6S(NO)2